14
 energy: -25.885417809727 gnorm: 0.000996403782 xtb: 6.7.1 (edcfbbe)
C           -5.17340291718926       -0.90422886980152       -0.00002029593700
C           -3.82556794745812       -0.11116688612182       -0.00002087244059
O           -3.93701712548969        1.12389760556743       -0.00000084378549
O           -2.79924100440089       -0.80598562425665       -0.00001857199548
C           -5.17758113651570       -2.29246199851451       -0.00000425020492
C           -7.57581735750296       -2.31366543184043        0.00001866872452
C           -6.38754550628384       -0.23092395921756       -0.00001421676963
H           -8.52763750026818       -0.39517631046836        0.00000898902535
H           -4.22403442510497       -2.80300843398839       -0.00000555300547
H           -6.36563641987877       -4.08008844600062        0.00002790814000
C           -7.58254291940965       -0.92750448819326        0.00000437080562
H           -6.36701349972712        0.85055287517239       -0.00002148935891
C           -6.36919147618403       -2.99532126817063        0.00001493717327
H           -8.51116703655373       -2.86259279384967        0.00003391448947
