14
 energy: -25.885417809527 gnorm: 0.000995853298 xtb: 6.7.1 (edcfbbe)
C        -5.17340244932847    -0.90423028316591    -0.00002029400414
C        -3.82556882440775    -0.11116675401243    -0.00002087250519
O        -3.93702024990482     1.12389694036981    -0.00000084162527
O        -2.79924057446020    -0.80598329541415    -0.00001857392527
C        -5.17758130136250    -2.29246352848692    -0.00000424958234
C        -7.57581719103895    -2.31366458676381     0.00001866803654
C        -6.38754472321988    -0.23092440097630    -0.00001421663814
H        -8.52763702129362    -0.39517530376555     0.00000898893806
H        -4.22403422023727    -2.80300945813159    -0.00000555266634
H        -6.36563745603935    -4.08008874952532     0.00002790736734
C        -7.58254257243749    -0.92750371949625     0.00000437008502
H        -6.36701069290188     0.85055250520093    -0.00002148834417
C        -6.36919198956808    -2.99532157882668     0.00001493644570
H        -8.51116700575973    -2.86259181668366     0.00003391327642
