53
 energy: -55.175293237501 gnorm: 0.000481590112 xtb: 6.7.1 (edcfbbe)
N        -2.93802496401366     0.47497414419401     0.00268558747584
C        -1.71370759077844     0.94312134199712     0.72753750265959
C        -3.57405685818459    -0.59584683157886     0.83893938136427
C        -3.90331400158939     1.61126692407912    -0.10320822315508
H        -3.46580354612668     2.35527920465038    -0.76724881099002
C        -5.30319279434895     1.26677687843067    -0.61175665714349
H        -3.99138460305790     2.05933084037705     0.88911079063292
C        -2.72670002187781    -1.82663697963327     1.15496624586651
H        -3.88853403222863    -0.13419993188160     1.77772737466931
H        -4.46859081625295    -0.93013359268422     0.31239231827267
H        -1.05265172892407     0.08287680652376     0.83757135165545
C        -0.90266980776294     2.07734731630254     0.10908974044750
H        -2.03345117655520     1.25117497603185     1.72633725978708
C        -2.59019976207665    -0.10106766366542    -1.33902585576130
H        -1.61633013367553    -0.58340370298653    -1.23892486513130
H        -3.32308536617725    -0.87830764069998    -1.56414119770280
C        -2.53831879440985     0.84343705741191    -2.53991636206876
H        -1.88814714798110     1.69700981095641    -2.35771454192845
C        -2.00412132347557     0.08136882719554    -3.75803744708880
H        -3.53110627651899     1.21892047054843    -2.78560584366741
H        -0.99535490641880    -0.28068971512161    -3.55110179314603
H        -2.63606094317844    -0.78705836153358    -3.95220002317682
C        -1.97631058890864     0.97146081841811    -4.99373079154176
H        -1.33125048187140     1.83233348343963    -4.83554421180155
H        -1.59866304346239     0.41539750008253    -5.84670894158773
H        -2.97457916743246     1.32819622132909    -5.23495963591273
H        -1.91620274965560    -1.58436485178171     1.84257760104692
C        -3.60278439266893    -2.89649613350322     1.81683211609925
H        -2.29483791477831    -2.24990562489278     0.24780106975361
H        -4.05899944570287    -2.48521507119606     2.71883813452883
H        -4.40689240368847    -3.18312456345095     1.13661227292040
C        -2.78682788476416    -4.13017408571755     2.18033720794337
H        -1.99478546445295    -3.87639352096474     2.88029077021978
H        -3.42434277205358    -4.87679924858678     2.64407724560385
H        -2.33645293171450    -4.56960178051116     1.29368330109308
H        -0.44292349352803     1.75781886877459    -0.82570572165404
H        -1.52109263406670     2.95385834607553    -0.08415678543426
C         0.21663832361706     2.48805955933459     1.07298869877242
H         0.84580774832769     1.62354661737385     1.29243365235596
C         1.07327120985682     3.59869286663664     0.47878299938202
H        -0.21880986072219     2.83148084789141     2.01320343586111
H         1.54400144331637     3.27113706840266    -0.44482355063037
H         0.47110453479819     4.47865962704030     0.26632073958586
H         1.85521785759648     3.88222866244374     1.17669174395581
H        -5.25702506973034     0.61462039906560    -1.48429829850213
H        -5.88440385236497     0.76094289669690     0.16004039913791
C        -6.04523207552335     2.55012942726626    -1.00017380918886
H        -5.50146975242158     3.06212674344294    -1.79677102627785
C        -7.46224812897735     2.24860304606688    -1.47043686266251
H        -6.08394888533392     3.22016429806401    -0.13966052136720
H        -7.44998008687003     1.59828617978381    -2.34180250061691
H        -8.03364220395783     1.76129005907512    -0.68450761777391
H        -7.97105853188433     3.16919249648703    -1.73991749214317
