 Entering Gaussian System
 *********************************************
 Gaussian 98:
 frequency output generated by the xtb code
 *********************************************
                         Standard orientation:
 --------------------------------------------------------------------
  Center     Atomic     Atomic              Coordinates (Angstroms)
  Number     Number      Type              X           Y           Z
 --------------------------------------------------------------------
    1          7             0       -2.938023    0.474990    0.002695
    2          6             0       -1.713700    0.943132    0.727542
    3          6             0       -3.574057   -0.595827    0.838953
    4          6             0       -3.903306    1.611287   -0.103197
    5          1             0       -3.465794    2.355296   -0.767241
    6          6             0       -5.303189    1.266804   -0.611740
    7          1             0       -3.991371    2.059353    0.889121
    8          6             0       -2.726706   -1.826621    1.154979
    9          1             0       -3.888529   -0.134177    1.777741
   10          1             0       -4.468595   -0.930110    0.312410
   11          1             0       -1.052648    0.082884    0.837575
   12          6             0       -0.902659    2.077352    0.109089
   13          1             0       -2.033439    1.251189    1.726342
   14          6             0       -2.590205   -0.101057   -1.339017
   15          1             0       -1.616338   -0.583397   -1.238918
   16          1             0       -3.323096   -0.878293   -1.564128
   17          6             0       -2.538324    0.843446   -2.539909
   18          1             0       -1.888147    1.697016   -2.357711
   19          6             0       -2.004134    0.081373   -3.758031
   20          1             0       -3.531110    1.218934   -2.785596
   21          1             0       -0.995369   -0.280691   -3.551098
   22          1             0       -2.636079   -0.787051   -3.952190
   23          6             0       -1.976323    0.971463   -4.993726
   24          1             0       -1.331258    1.832332   -4.835543
   25          1             0       -1.598682    0.415396   -5.846705
   26          1             0       -2.974591    1.328203   -5.234952
   27          1             0       -1.916205   -1.584352    1.842587
   28          6             0       -3.602793   -2.896474    1.816850
   29          1             0       -2.294849   -2.249893    0.247813
   30          1             0       -4.059003   -2.485189    2.718857
   31          1             0       -4.406905   -3.183100    1.136633
   32          6             0       -2.786842   -4.130156    2.180354
   33          1             0       -1.994796   -3.876378    2.880305
   34          1             0       -3.424359   -4.876777    2.644098
   35          1             0       -2.336472   -4.569588    1.293699
   36          1             0       -0.442917    1.757820   -0.825707
   37          1             0       -1.521078    2.953866   -0.084157
   38          6             0        0.216655    2.488060    1.072984
   39          1             0        0.845821    1.623545    1.292428
   40          6             0        1.073292    3.598688    0.478773
   41          1             0       -0.218788    2.831485    2.013199
   42          1             0        1.544017    3.271129   -0.444835
   43          1             0        0.471129    4.478658    0.266311
   44          1             0        1.855242    3.882221    1.176678
   45          1             0       -5.257028    0.614645   -1.484281
   46          1             0       -5.884400    0.760974    0.160060
   47          6             0       -6.045223    2.550160   -1.000157
   48          1             0       -5.501460    3.062153   -1.796757
   49          6             0       -7.462242    2.248640   -1.470415
   50          1             0       -6.083933    3.220196   -0.139645
   51          1             0       -7.449981    1.598321   -2.341779
   52          1             0       -8.033636    1.761331   -0.684483
   53          1             0       -7.971049    3.169232   -1.739895
 --------------------------------------------------------------------
     1 basis functions        1 primitive gaussians
     1 alpha electrons        1 beta electrons
 
 Harmonic frequencies (cm**-1), IR intensities (km*mol⁻¹),
 Raman scattering activities (A**4/amu), Raman depolarization ratios,
 reduced masses (AMU), force constants (mDyne/A) and normal coordinates:
                      1                      2                      3
                        a                      a                      a 
 Frequencies --    36.0116                38.0642                45.4858
 Red. masses --     9.3624                 9.1053                 9.0640
 Frc consts  --     0.0000                 0.0000                 0.0000
 IR Inten    --     0.6063                 0.1871                 0.3555
 Raman Activ --     0.0000                 0.0000                 0.0000
 Depolar     --     0.0000                 0.0000                 0.0000
 Atom AN      X      Y      Z        X      Y      Z        X      Y      Z
   1   7     0.01  -0.06  -0.14    -0.08   0.03   0.02     0.02   0.06   0.10
   2   6     0.02  -0.08  -0.13    -0.08   0.06   0.01     0.01   0.11   0.08
   3   6    -0.02  -0.03  -0.12    -0.05   0.02   0.02     0.03   0.08   0.12
   4   6     0.04  -0.02  -0.13    -0.10  -0.00   0.01     0.01   0.05   0.04
   5   1     0.01  -0.02  -0.05    -0.04   0.00   0.00     0.00   0.01   0.00
   6   6    -0.00   0.03  -0.05    -0.09  -0.05   0.01     0.01   0.03   0.06
   7   1     0.03   0.00  -0.04    -0.03   0.00   0.00     0.00   0.03   0.01
   8   6    -0.02  -0.01  -0.05    -0.03   0.03   0.03    -0.01   0.02   0.00
   9   1    -0.02  -0.00  -0.04    -0.02   0.00   0.01     0.04   0.02   0.05
  10   1     0.00  -0.02  -0.04    -0.01  -0.00   0.01    -0.01   0.04   0.05
  11   1     0.01  -0.02  -0.06    -0.04   0.01   0.04    -0.00   0.03   0.05
  12   6    -0.04   0.01  -0.04     0.00  -0.07  -0.11     0.03   0.03  -0.04
  13   1     0.01  -0.05  -0.03    -0.03   0.06  -0.01    -0.00   0.06   0.01
  14   6    -0.01  -0.08  -0.12    -0.04   0.03   0.02     0.03   0.00   0.12
  15   1    -0.01  -0.05  -0.03    -0.01   0.01   0.01     0.01   0.00   0.05
  16   1    -0.02  -0.01  -0.04    -0.01   0.01   0.00     0.01  -0.00   0.05
  17   6     0.09  -0.09  -0.12    -0.03   0.05   0.03     0.05  -0.08   0.07
  18   1     0.03  -0.03  -0.03    -0.06   0.04   0.04     0.02  -0.02   0.00
  19   6     0.14  -0.12  -0.08     0.26   0.15   0.10     0.05  -0.18   0.13
  20   1     0.03  -0.02  -0.05    -0.02  -0.03  -0.03     0.02  -0.02   0.01
  21   1     0.03  -0.06   0.00     0.08   0.07   0.08     0.01  -0.05   0.05
  22   1     0.03  -0.02  -0.04     0.11   0.03  -0.02     0.01  -0.06   0.06
  23   6     0.32  -0.12  -0.08     0.39   0.21   0.14     0.09  -0.30   0.05
  24   1     0.11  -0.05  -0.01     0.08   0.08   0.09     0.03  -0.08  -0.00
  25   1     0.10  -0.04  -0.01     0.17   0.08   0.05     0.03  -0.11   0.03
  26   1     0.11  -0.01  -0.05     0.12   0.04  -0.01     0.03  -0.09   0.00
  27   1    -0.01   0.01  -0.02    -0.02   0.01   0.02     0.00  -0.02   0.01
  28   6    -0.03   0.03   0.01    -0.03   0.01  -0.00    -0.05  -0.03  -0.12
  29   1    -0.01  -0.02  -0.01    -0.00   0.01   0.01    -0.01   0.03  -0.01
  30   1    -0.01   0.03  -0.01    -0.02  -0.00  -0.01     0.03  -0.05   0.01
  31   1    -0.00  -0.01   0.01    -0.00  -0.00  -0.01    -0.05   0.06  -0.03
  32   6    -0.03   0.06   0.12    -0.02   0.03   0.03    -0.16  -0.21  -0.51
  33   1    -0.01   0.03   0.04    -0.01   0.01   0.02    -0.00  -0.13  -0.17
  34   1    -0.01   0.03   0.05    -0.01   0.00   0.00    -0.05  -0.07  -0.17
  35   1    -0.00  -0.00   0.05     0.01   0.01   0.01    -0.10  -0.02  -0.20
  36   1    -0.00   0.03  -0.02     0.00  -0.06  -0.02     0.03  -0.03   0.01
  37   1    -0.02  -0.00   0.00     0.02  -0.02  -0.07     0.01  -0.00  -0.06
  38   6    -0.09   0.02   0.01     0.01  -0.02  -0.15    -0.05   0.24  -0.03
  39   1    -0.00   0.02  -0.02    -0.03  -0.02   0.02    -0.01   0.09   0.05
  40   6    -0.19   0.17   0.14     0.19  -0.26  -0.35    -0.06   0.17  -0.16
  41   1    -0.04  -0.04   0.01     0.01   0.07  -0.07    -0.04   0.11  -0.03
  42   1    -0.05   0.09   0.03     0.06  -0.15  -0.07     0.01   0.01  -0.02
  43   1    -0.08   0.04   0.07     0.09  -0.07  -0.17    -0.02   0.03  -0.10
  44   1    -0.06   0.05   0.05     0.05  -0.06  -0.11    -0.03   0.09  -0.04
  45   1    -0.02   0.05  -0.04    -0.02  -0.00  -0.00     0.00   0.00   0.02
  46   1     0.02  -0.03  -0.02    -0.02  -0.03   0.00     0.00   0.02   0.02
  47   6    -0.05   0.09   0.24    -0.16  -0.07   0.07     0.01   0.02   0.03
  48   1    -0.05   0.05   0.06    -0.06  -0.01   0.02    -0.00  -0.01  -0.00
  49   6    -0.14   0.17   0.46    -0.17  -0.13   0.12    -0.01   0.02   0.10
  50   1     0.03  -0.00   0.09    -0.05  -0.03   0.02     0.01   0.02   0.00
  51   1    -0.09   0.08   0.11    -0.05  -0.03   0.03    -0.02  -0.01   0.04
  52   1    -0.00   0.03   0.15    -0.03  -0.05   0.04     0.00   0.02   0.04
  53   1    -0.05   0.06   0.19    -0.07  -0.04   0.05    -0.00   0.00   0.02
                      4                      5                      6
                        a                      a                      a 
 Frequencies --    50.8982                63.1421                65.1866
 Red. masses --     6.3188                 6.3002                 7.5403
 Frc consts  --     0.0000                 0.0000                 0.0000
 IR Inten    --     0.0905                 0.1070                 0.1389
 Raman Activ --     0.0000                 0.0000                 0.0000
 Depolar     --     0.0000                 0.0000                 0.0000
 Atom AN      X      Y      Z        X      Y      Z        X      Y      Z
   1   7     0.01  -0.07   0.00     0.05   0.04  -0.02     0.05   0.06  -0.06
   2   6     0.05  -0.07  -0.07     0.04   0.03   0.01    -0.00   0.08   0.01
   3   6     0.05  -0.06   0.03     0.02   0.06  -0.02     0.04   0.04  -0.08
   4   6     0.01  -0.06   0.07     0.04   0.04  -0.05     0.01   0.02  -0.09
   5   1     0.00  -0.01   0.03    -0.00  -0.00  -0.04    -0.00   0.01  -0.02
   6   6     0.00  -0.02   0.04     0.02  -0.04   0.05     0.04  -0.05  -0.11
   7   1     0.00  -0.03   0.03     0.03   0.03  -0.02    -0.01   0.01  -0.03
   8   6    -0.05  -0.18  -0.19    -0.04   0.02  -0.03    -0.01  -0.01  -0.13
   9   1     0.07  -0.03   0.03     0.01   0.02  -0.00     0.02   0.00  -0.02
  10   1    -0.02   0.02   0.05     0.00   0.03  -0.00     0.01   0.02  -0.02
  11   1     0.02  -0.02  -0.04     0.02   0.01  -0.02    -0.01   0.02   0.04
  12   6     0.01  -0.04  -0.08    -0.04   0.12   0.08     0.10   0.01   0.02
  13   1     0.03  -0.03  -0.01     0.01  -0.02   0.01    -0.02   0.05  -0.01
  14   6    -0.09  -0.05  -0.03     0.09   0.03  -0.00     0.12   0.07  -0.04
  15   1    -0.04  -0.04  -0.02     0.04   0.04  -0.00     0.03   0.01   0.00
  16   1    -0.05   0.01  -0.01     0.05  -0.02   0.01     0.03   0.02  -0.02
  17   6    -0.03   0.01   0.02    -0.04   0.00  -0.04     0.17   0.07  -0.03
  18   1    -0.00  -0.01   0.02    -0.08   0.05  -0.01     0.10  -0.01  -0.02
  19   6    -0.03   0.07  -0.02     0.25   0.09   0.04    -0.08  -0.01  -0.09
  20   1    -0.00   0.02   0.01    -0.03  -0.07  -0.04     0.06   0.07   0.02
  21   1    -0.03  -0.02   0.00     0.12   0.15   0.02    -0.03  -0.03  -0.07
  22   1    -0.03   0.05  -0.04     0.17  -0.05   0.04    -0.06   0.02   0.01
  23   6     0.15   0.20   0.08    -0.13  -0.02  -0.06    -0.17  -0.05  -0.12
  24   1     0.07   0.03   0.06    -0.15   0.08  -0.04    -0.02  -0.03  -0.07
  25   1     0.04   0.07   0.01     0.04   0.02   0.00    -0.10  -0.03  -0.05
  26   1     0.06   0.10   0.02    -0.08  -0.14  -0.03    -0.05   0.01   0.00
  27   1     0.10  -0.08  -0.18     0.01  -0.01  -0.03     0.04  -0.01  -0.08
  28   6     0.04   0.12   0.41    -0.10   0.12   0.07    -0.02   0.15   0.12
  29   1    -0.17  -0.12  -0.10    -0.04  -0.02  -0.01    -0.06  -0.04  -0.05
  30   1     0.21   0.09   0.19     0.03   0.05   0.04     0.07   0.07   0.06
  31   1    -0.13   0.09   0.27    -0.07   0.07   0.05    -0.06   0.07   0.09
  32   6    -0.10  -0.10  -0.00    -0.24  -0.01  -0.07    -0.12   0.04  -0.01
  33   1     0.13  -0.08  -0.16    -0.02  -0.04  -0.06     0.03  -0.01  -0.06
  34   1    -0.01   0.04   0.14    -0.08   0.03   0.01    -0.04   0.05   0.06
  35   1    -0.24  -0.09  -0.07    -0.13  -0.02  -0.04    -0.12  -0.03  -0.03
  36   1     0.02  -0.01  -0.02    -0.08   0.09  -0.03     0.09  -0.03   0.05
  37   1    -0.01  -0.02  -0.03    -0.01   0.06   0.13     0.04  -0.01  -0.07
  38   6    -0.04   0.05  -0.07     0.22  -0.19  -0.08    -0.12   0.14   0.24
  39   1     0.01   0.03  -0.02     0.09  -0.07  -0.17    -0.10   0.03   0.20
  40   6    -0.13   0.13  -0.06     0.01   0.07   0.09     0.26  -0.19   0.16
  41   1    -0.02   0.01  -0.02     0.14  -0.16   0.05    -0.11   0.15  -0.00
  42   1    -0.03   0.05  -0.02    -0.08   0.13  -0.06     0.16  -0.17   0.13
  43   1    -0.06   0.02  -0.02    -0.02   0.04   0.19     0.14  -0.05  -0.11
  44   1    -0.05   0.06  -0.02     0.07  -0.06  -0.01     0.01  -0.02   0.10
  45   1     0.00  -0.01   0.02    -0.00  -0.06   0.05     0.02   0.01  -0.05
  46   1    -0.01   0.01   0.01     0.01   0.03   0.05     0.03  -0.05  -0.04
  47   6     0.07  -0.00  -0.02    -0.01  -0.12  -0.16    -0.11  -0.10   0.02
  48   1     0.04  -0.01   0.01    -0.04  -0.10  -0.11    -0.07  -0.01  -0.01
  49   6     0.09   0.03  -0.13    -0.10  -0.23   0.17    -0.14  -0.22   0.17
  50   1     0.01   0.00  -0.01     0.04   0.03  -0.09    -0.02  -0.04   0.01
  51   1     0.04   0.01  -0.04    -0.07  -0.14   0.11    -0.05  -0.06   0.04
  52   1     0.01   0.01  -0.05     0.01   0.01   0.12    -0.00  -0.09   0.06
  53   1     0.04   0.01  -0.05    -0.03  -0.09  -0.01    -0.07  -0.08   0.07
                      7                      8                      9
                        a                      a                      a 
 Frequencies --    67.6319                74.0997                79.1500
 Red. masses --     8.3721                 6.5375                 5.9730
 Frc consts  --     0.0000                 0.0000                 0.0000
 IR Inten    --     0.2830                 0.0868                 0.0209
 Raman Activ --     0.0000                 0.0000                 0.0000
 Depolar     --     0.0000                 0.0000                 0.0000
 Atom AN      X      Y      Z        X      Y      Z        X      Y      Z
   1   7     0.11  -0.07   0.01     0.04   0.06   0.01     0.04   0.03  -0.01
   2   6     0.11  -0.08  -0.00     0.07   0.02  -0.03     0.04   0.02  -0.00
   3   6     0.06  -0.05  -0.01     0.03   0.08   0.04     0.04   0.01  -0.02
   4   6     0.11  -0.06   0.03     0.04   0.06   0.01     0.01   0.01   0.01
   5   1     0.02  -0.02   0.01     0.00   0.01  -0.01     0.00   0.01   0.01
   6   6     0.10  -0.06   0.06     0.03  -0.02   0.08     0.04  -0.01  -0.03
   7   1     0.04  -0.02   0.01     0.02   0.03   0.00    -0.01  -0.01   0.01
   8   6    -0.02  -0.08   0.07     0.01   0.08   0.08     0.00  -0.00   0.00
   9   1     0.01  -0.01  -0.01     0.01   0.03   0.01     0.01   0.00  -0.01
  10   1     0.02  -0.01  -0.01     0.01   0.02   0.02     0.02   0.00  -0.01
  11   1     0.02  -0.03   0.02     0.02   0.00  -0.03     0.01   0.01  -0.00
  12   6     0.14  -0.15  -0.11     0.04   0.06   0.01     0.02   0.03   0.00
  13   1     0.03   0.00  -0.01     0.03  -0.01   0.00     0.01   0.00   0.00
  14   6     0.10  -0.04  -0.01    -0.04   0.02  -0.00     0.04   0.04  -0.01
  15   1     0.03  -0.00  -0.01    -0.02  -0.01  -0.01     0.01   0.00  -0.00
  16   1     0.04  -0.02  -0.00    -0.03   0.02   0.01     0.01   0.01  -0.01
  17   6     0.05   0.02   0.03    -0.00   0.02  -0.01     0.07   0.03  -0.01
  18   1     0.01   0.01   0.02     0.07  -0.04  -0.03     0.02   0.01  -0.01
  19   6     0.02   0.13  -0.05    -0.39  -0.10  -0.10     0.06   0.00   0.00
  20   1     0.01   0.00   0.03     0.02   0.08   0.04     0.02   0.01  -0.01
  21   1     0.02   0.06  -0.04    -0.18  -0.22  -0.03     0.03   0.02  -0.01
  22   1     0.02   0.03  -0.02    -0.26   0.09  -0.09     0.03  -0.01   0.02
  23   6    -0.14   0.23   0.02     0.28   0.10   0.07    -0.05  -0.07  -0.05
  24   1    -0.06   0.08   0.01     0.26  -0.12   0.07    -0.03  -0.00  -0.04
  25   1    -0.04   0.09  -0.02    -0.03  -0.00  -0.01    -0.01  -0.03  -0.01
  26   1    -0.06   0.05   0.03     0.16   0.25   0.03    -0.02  -0.05  -0.01
  27   1    -0.04  -0.04   0.06    -0.02   0.02   0.05    -0.00  -0.01   0.01
  28   6    -0.21  -0.06  -0.14    -0.07   0.05  -0.08    -0.09   0.05  -0.02
  29   1     0.04  -0.02   0.04     0.03   0.04   0.03     0.00  -0.01   0.01
  30   1    -0.15   0.00  -0.09    -0.05   0.00  -0.03    -0.03   0.03  -0.01
  31   1     0.00  -0.03  -0.11     0.00   0.03  -0.06    -0.02   0.03  -0.01
  32   6    -0.34  -0.03   0.22    -0.13   0.02  -0.05    -0.20  -0.01   0.02
  33   1    -0.18   0.00   0.15    -0.06  -0.01   0.02    -0.06  -0.02   0.02
  34   1    -0.15  -0.00   0.01    -0.06  -0.00  -0.05    -0.08   0.01   0.00
  35   1    -0.00  -0.02   0.12    -0.01   0.02  -0.00    -0.06  -0.01   0.01
  36   1     0.09  -0.09   0.01    -0.01   0.04  -0.02    -0.02   0.02  -0.01
  37   1     0.03  -0.07  -0.12     0.01   0.03   0.05     0.01   0.02   0.03
  38   6    -0.06   0.21  -0.03     0.15  -0.08  -0.05     0.12  -0.04  -0.08
  39   1     0.01   0.10   0.07     0.06  -0.03  -0.08     0.05  -0.01  -0.07
  40   6    -0.15   0.21  -0.15     0.04   0.06   0.06    -0.01   0.08  -0.04
  41   1    -0.07   0.10  -0.05     0.07  -0.08   0.02     0.06  -0.05   0.01
  42   1     0.01   0.02  -0.00    -0.03   0.08  -0.02    -0.04   0.07  -0.04
  43   1    -0.08   0.02  -0.13    -0.00   0.03   0.10    -0.02   0.03   0.05
  44   1    -0.09   0.14  -0.03     0.04  -0.02   0.00     0.02   0.00  -0.03
  45   1     0.02  -0.04   0.03     0.01  -0.03   0.04     0.03   0.09  -0.07
  46   1     0.03   0.00   0.03     0.02   0.01   0.04     0.04  -0.11  -0.05
  47   6     0.12  -0.08  -0.03    -0.05  -0.11  -0.07    -0.19  -0.00   0.46
  48   1     0.03  -0.05  -0.03    -0.03  -0.05  -0.04    -0.02   0.18   0.28
  49   6     0.08  -0.08   0.09    -0.05  -0.30   0.02     0.07  -0.16  -0.23
  50   1     0.06   0.00  -0.03    -0.02  -0.00  -0.04    -0.20  -0.15   0.24
  51   1     0.00  -0.06   0.05    -0.01  -0.12   0.04     0.17   0.14  -0.20
  52   1     0.03   0.01   0.05     0.01  -0.06   0.03    -0.01  -0.27  -0.23
  53   1     0.03  -0.03   0.00    -0.04  -0.11  -0.03    -0.05  -0.04   0.08
                     10                     11                     12
                        a                      a                      a 
 Frequencies --   108.5660               116.3304               125.5329
 Red. masses --     8.2477                 8.3400                 7.9105
 Frc consts  --     0.0000                 0.0000                 0.0000
 IR Inten    --     0.0251                 0.0458                 0.2527
 Raman Activ --     0.0000                 0.0000                 0.0000
 Depolar     --     0.0000                 0.0000                 0.0000
 Atom AN      X      Y      Z        X      Y      Z        X      Y      Z
   1   7    -0.03   0.01  -0.07     0.01  -0.08  -0.03     0.06  -0.07  -0.06
   2   6     0.11  -0.11  -0.23    -0.04  -0.01   0.02     0.08  -0.06  -0.11
   3   6    -0.01   0.12   0.09    -0.04   0.00   0.03     0.07  -0.04  -0.02
   4   6     0.05   0.08  -0.00     0.00  -0.09  -0.17     0.08  -0.05  -0.01
   5   1    -0.00   0.00  -0.04     0.02  -0.03  -0.04    -0.00  -0.03  -0.04
   6   6    -0.02   0.08   0.20     0.05  -0.09  -0.30    -0.00  -0.03   0.21
   7   1     0.06   0.05  -0.01    -0.03  -0.02  -0.05     0.07   0.01  -0.01
   8   6     0.02   0.17   0.20     0.06   0.18   0.45     0.08   0.01   0.11
   9   1     0.01   0.07   0.01    -0.09   0.04  -0.04     0.00   0.00  -0.02
  10   1    -0.01   0.01   0.05     0.04  -0.06  -0.04     0.03  -0.03  -0.01
  11   1     0.01  -0.05  -0.09    -0.01   0.00   0.03     0.08   0.01  -0.16
  12   6     0.20  -0.17  -0.24    -0.03  -0.03   0.00    -0.29   0.37   0.17
  13   1     0.07  -0.02  -0.06    -0.03   0.01  -0.00     0.06  -0.14   0.02
  14   6    -0.25  -0.08  -0.08     0.11  -0.13   0.01    -0.03  -0.09  -0.08
  15   1    -0.09  -0.07  -0.05     0.04  -0.02   0.02     0.00  -0.01  -0.04
  16   1    -0.11   0.01  -0.00     0.05  -0.05   0.00    -0.00  -0.04  -0.00
  17   6    -0.18  -0.07  -0.07     0.08  -0.10   0.02    -0.14  -0.11  -0.10
  18   1    -0.08  -0.00   0.02     0.03  -0.04   0.01    -0.08  -0.00  -0.03
  19   6     0.09   0.03  -0.01    -0.02   0.03  -0.10     0.00  -0.02  -0.09
  20   1    -0.05  -0.05  -0.05     0.02  -0.02   0.03    -0.06  -0.07  -0.03
  21   1     0.05   0.08   0.03    -0.00  -0.01  -0.07     0.00   0.01  -0.01
  22   1     0.09  -0.03  -0.02    -0.02   0.02  -0.05     0.02  -0.01  -0.05
  23   6     0.01   0.02  -0.02    -0.11   0.24   0.05     0.06   0.05  -0.05
  24   1    -0.08   0.06   0.02    -0.02   0.06   0.04    -0.01   0.02   0.02
  25   1     0.09   0.03   0.01    -0.06   0.11  -0.03     0.05   0.03  -0.01
  26   1    -0.02  -0.08  -0.05    -0.03   0.09   0.06     0.02  -0.00  -0.04
  27   1    -0.03   0.06   0.09    -0.06   0.11   0.20    -0.00   0.02   0.06
  28   6     0.02   0.08   0.05     0.03   0.07   0.24    -0.01   0.02   0.01
  29   1     0.05   0.06   0.07     0.12   0.05   0.18     0.06   0.00   0.05
  30   1     0.00  -0.02   0.03     0.04  -0.04   0.11    -0.01   0.00   0.00
  31   1     0.01   0.05   0.00    -0.01   0.09   0.07     0.00   0.03  -0.02
  32   6     0.05   0.04  -0.14    -0.03  -0.10  -0.19    -0.14  -0.07  -0.00
  33   1     0.02  -0.01  -0.03     0.04  -0.10  -0.08    -0.05  -0.05   0.02
  34   1     0.02  -0.01  -0.07    -0.01  -0.04  -0.08    -0.07  -0.01  -0.02
  35   1     0.01   0.05  -0.06    -0.07   0.02  -0.11    -0.04  -0.02   0.00
  36   1     0.13  -0.08  -0.03    -0.02  -0.01  -0.00    -0.12   0.24  -0.02
  37   1     0.07  -0.06  -0.14    -0.00  -0.00   0.00    -0.15   0.09   0.19
  38   6    -0.08  -0.05   0.04     0.00  -0.05  -0.03    -0.17   0.21   0.10
  39   1    -0.02   0.00   0.07     0.01  -0.01  -0.03    -0.12   0.02   0.06
  40   6     0.02   0.01   0.30    -0.04  -0.02  -0.04     0.15  -0.13  -0.08
  41   1    -0.11  -0.02  -0.03     0.01  -0.03   0.00    -0.02   0.13   0.02
  42   1     0.11   0.01   0.14    -0.03   0.01  -0.03     0.04  -0.13   0.01
  43   1     0.00  -0.01   0.02    -0.02  -0.00   0.01     0.11  -0.01  -0.10
  44   1    -0.07   0.03   0.17     0.00  -0.01  -0.02     0.05  -0.05  -0.02
  45   1    -0.04  -0.02   0.09     0.03   0.03  -0.12    -0.04  -0.04   0.09
  46   1     0.01   0.06   0.10     0.01  -0.08  -0.12     0.01   0.04   0.10
  47   6    -0.06   0.01   0.05     0.03  -0.01  -0.02     0.08  -0.02   0.09
  48   1    -0.00  -0.00   0.02    -0.01   0.03   0.01     0.05  -0.02   0.03
  49   6     0.02  -0.14  -0.09    -0.03   0.12   0.06     0.12   0.02  -0.05
  50   1    -0.06   0.02  -0.00     0.03  -0.05   0.03     0.01   0.01   0.02
  51   1     0.05  -0.06  -0.02    -0.04   0.09  -0.02     0.06  -0.00  -0.01
  52   1    -0.01  -0.05  -0.04     0.01  -0.01   0.00     0.01   0.02  -0.03
  53   1    -0.01  -0.06  -0.06    -0.01   0.05   0.09     0.05   0.01  -0.04
                     13                     14                     15
                        a                      a                      a 
 Frequencies --   156.4036               173.8358               178.6426
 Red. masses --     8.5859                 6.8887                 8.4302
 Frc consts  --     0.0000                 0.0000                 0.0000
 IR Inten    --     0.2876                 0.1095                 0.0650
 Raman Activ --     0.0000                 0.0000                 0.0000
 Depolar     --     0.0000                 0.0000                 0.0000
 Atom AN      X      Y      Z        X      Y      Z        X      Y      Z
   1   7     0.01   0.01   0.02     0.05   0.02  -0.02     0.01  -0.01   0.01
   2   6     0.02   0.22  -0.12    -0.11   0.14   0.17     0.06  -0.06  -0.02
   3   6     0.22   0.03   0.19    -0.03   0.00  -0.11    -0.10   0.14   0.12
   4   6    -0.14  -0.12  -0.02     0.04   0.01  -0.14     0.15   0.10  -0.16
   5   1    -0.03  -0.00   0.03    -0.01  -0.04  -0.10     0.07  -0.01  -0.07
   6   6    -0.06  -0.16  -0.23    -0.07  -0.01   0.19     0.15   0.13  -0.15
   7   1    -0.09  -0.06   0.00     0.06   0.07  -0.06     0.05   0.06  -0.06
   8   6     0.17  -0.09  -0.08    -0.04   0.01  -0.09    -0.23  -0.02  -0.19
   9   1     0.16   0.01   0.09    -0.04  -0.01  -0.04     0.06   0.05   0.06
  10   1     0.01   0.04   0.13     0.01   0.00  -0.06    -0.08   0.10   0.08
  11   1     0.01   0.07   0.00    -0.05   0.04   0.17     0.03  -0.01  -0.05
  12   6     0.06   0.17  -0.18     0.06  -0.09  -0.02    -0.04   0.07   0.08
  13   1     0.01   0.10  -0.05    -0.10   0.13   0.00     0.03  -0.05   0.01
  14   6    -0.08  -0.09   0.06     0.38  -0.03   0.07    -0.06  -0.24   0.09
  15   1    -0.02  -0.02   0.00     0.20   0.18   0.04    -0.03  -0.10   0.03
  16   1    -0.03  -0.03   0.05     0.25  -0.15   0.07    -0.05  -0.05   0.05
  17   6    -0.18  -0.13   0.04    -0.29  -0.22  -0.11     0.02  -0.29   0.08
  18   1    -0.08  -0.01   0.01    -0.19   0.03  -0.09     0.01  -0.09   0.04
  19   6    -0.05  -0.05   0.05    -0.11  -0.09  -0.11     0.03  -0.13   0.01
  20   1    -0.06  -0.07   0.00    -0.15  -0.22  -0.00     0.01  -0.07   0.02
  21   1    -0.01   0.00   0.03    -0.03  -0.02  -0.00     0.02  -0.02  -0.03
  22   1     0.01  -0.02  -0.01    -0.01  -0.03  -0.09     0.03  -0.04  -0.04
  23   6    -0.01   0.05   0.12     0.06   0.09   0.02    -0.12   0.19   0.23
  24   1    -0.04   0.03   0.08     0.02   0.01   0.07    -0.08   0.07   0.13
  25   1     0.04   0.05   0.03     0.04   0.06  -0.00    -0.01   0.14   0.02
  26   1    -0.01  -0.01   0.01     0.03   0.04  -0.01    -0.05   0.02   0.10
  27   1     0.08  -0.08  -0.05    -0.01   0.01  -0.03    -0.01  -0.05  -0.11
  28   6     0.05  -0.02  -0.11    -0.01   0.04  -0.02    -0.11  -0.05  -0.09
  29   1    -0.00  -0.02  -0.05    -0.01  -0.01  -0.02    -0.15   0.00  -0.09
  30   1    -0.01   0.02  -0.06     0.01   0.02  -0.00    -0.04  -0.02  -0.03
  31   1     0.03   0.00  -0.06    -0.01   0.00   0.01    -0.03  -0.06  -0.01
  32   6    -0.15  -0.09   0.10     0.03   0.07  -0.02     0.17   0.15  -0.05
  33   1    -0.09  -0.04   0.09     0.04   0.04  -0.04     0.03   0.11  -0.02
  34   1    -0.10  -0.00  -0.01     0.03   0.03   0.04     0.10   0.00  -0.01
  35   1     0.01  -0.04   0.06    -0.03  -0.00  -0.01     0.08   0.07  -0.01
  36   1     0.02   0.04  -0.05     0.02  -0.10   0.02    -0.02   0.06   0.00
  37   1     0.03   0.06  -0.06     0.05  -0.02  -0.07    -0.03   0.02   0.06
  38   6     0.04   0.04  -0.07     0.01  -0.03   0.02     0.00   0.06   0.04
  39   1    -0.01  -0.01  -0.04     0.01   0.00   0.02    -0.00   0.01   0.01
  40   6     0.21   0.06   0.23    -0.00   0.01   0.08     0.01   0.01  -0.05
  41   1    -0.01  -0.02  -0.02    -0.02  -0.01  -0.00     0.01   0.03   0.01
  42   1     0.08   0.06   0.06     0.02   0.01   0.03    -0.00  -0.02  -0.01
  43   1     0.10   0.05   0.10    -0.01  -0.00   0.02     0.01   0.00  -0.03
  44   1     0.05  -0.05   0.11    -0.02   0.01   0.04     0.01   0.01  -0.02
  45   1     0.01  -0.00  -0.10    -0.08  -0.05   0.09     0.04   0.05  -0.06
  46   1    -0.04  -0.09  -0.11     0.01   0.05   0.11     0.05   0.02  -0.05
  47   6    -0.01  -0.07  -0.05    -0.01  -0.00   0.11     0.01   0.08  -0.02
  48   1    -0.00  -0.00  -0.01     0.02  -0.01   0.05    -0.03   0.06  -0.01
  49   6    -0.08   0.19  -0.00     0.03   0.06  -0.05     0.03  -0.16   0.06
  50   1     0.03  -0.05   0.01    -0.02   0.00   0.03    -0.01   0.00   0.01
  51   1    -0.07   0.10  -0.04     0.03   0.04  -0.03     0.03   0.01  -0.03
  52   1    -0.03   0.03  -0.01    -0.02   0.00  -0.04     0.07  -0.14   0.00
  53   1     0.01   0.09   0.06     0.02   0.03  -0.01    -0.07  -0.07   0.10
                     16                     17                     18
                        a                      a                      a 
 Frequencies --   201.8926               236.1462               236.4852
 Red. masses --     7.3251                 2.0672                 2.2159
 Frc consts  --     0.0000                 0.0000                 0.0000
 IR Inten    --     0.0585                 0.0135                 0.0238
 Raman Activ --     0.0000                 0.0000                 0.0000
 Depolar     --     0.0000                 0.0000                 0.0000
 Atom AN      X      Y      Z        X      Y      Z        X      Y      Z
   1   7     0.03   0.02   0.05    -0.00   0.00  -0.00     0.00  -0.01  -0.00
   2   6     0.05  -0.10   0.07    -0.01   0.02  -0.00    -0.03   0.02   0.03
   3   6    -0.01  -0.01  -0.02     0.00  -0.02  -0.02    -0.00  -0.01   0.00
   4   6     0.07   0.04   0.10     0.01   0.02   0.01     0.03   0.01   0.00
   5   1     0.05   0.05   0.10     0.01   0.01   0.02     0.01   0.00   0.00
   6   6     0.23   0.03  -0.30     0.03   0.05  -0.04     0.03   0.03   0.00
   7   1    -0.05  -0.05   0.05    -0.00  -0.01   0.01     0.01   0.00   0.00
   8   6    -0.00   0.01   0.03     0.06   0.03   0.06    -0.04  -0.05  -0.04
   9   1    -0.03  -0.01  -0.01    -0.03  -0.01  -0.01     0.01  -0.00   0.00
  10   1     0.01  -0.01  -0.02     0.02  -0.02  -0.02    -0.01   0.01   0.01
  11   1     0.01  -0.03  -0.01    -0.01   0.00   0.02    -0.02   0.01   0.04
  12   6     0.01  -0.06   0.10     0.03  -0.03  -0.03     0.03  -0.06  -0.04
  13   1     0.03  -0.05   0.03    -0.01   0.02  -0.01    -0.03   0.04  -0.01
  14   6    -0.06   0.14  -0.02    -0.04  -0.02   0.00     0.02   0.02  -0.02
  15   1     0.02   0.11  -0.05    -0.02  -0.03   0.00     0.01   0.01  -0.00
  16   1     0.03  -0.01   0.02    -0.03   0.01  -0.00     0.01   0.00  -0.01
  17   6    -0.43   0.12  -0.07     0.05  -0.02   0.02     0.01   0.02  -0.04
  18   1    -0.19   0.09  -0.04     0.05  -0.04   0.00     0.02  -0.01  -0.02
  19   6    -0.19   0.07   0.05    -0.09  -0.06  -0.02    -0.07  -0.00  -0.07
  20   1    -0.15  -0.05  -0.03     0.03   0.04   0.01     0.01   0.02   0.00
  21   1    -0.07   0.03   0.09    -0.04  -0.05  -0.01    -0.03  -0.02  -0.02
  22   1    -0.04   0.01   0.00    -0.05   0.01  -0.02    -0.04   0.02  -0.03
  23   6     0.12  -0.11  -0.07     0.00   0.02   0.04     0.03   0.01  -0.07
  24   1    -0.06   0.03   0.03    -0.16   0.11   0.12    -0.10   0.07   0.04
  25   1     0.20  -0.04   0.06     0.21   0.08   0.05     0.16   0.04   0.02
  26   1     0.04  -0.13  -0.18    -0.02  -0.15  -0.12    -0.00  -0.10  -0.12
  27   1    -0.01   0.01   0.02    -0.04   0.02   0.08     0.03  -0.02  -0.06
  28   6     0.00   0.00   0.02    -0.00  -0.06  -0.17     0.02   0.03   0.18
  29   1     0.01   0.01   0.01     0.09   0.04   0.04    -0.07  -0.04  -0.03
  30   1     0.00   0.00   0.01    -0.06  -0.02  -0.08     0.06   0.01   0.08
  31   1    -0.00   0.00   0.01     0.04  -0.04  -0.09    -0.04   0.03   0.10
  32   6    -0.00  -0.00   0.00    -0.02  -0.01   0.04     0.01  -0.04  -0.02
  33   1     0.01  -0.00  -0.02     0.20   0.09  -0.25    -0.19  -0.11   0.25
  34   1     0.00   0.01   0.02     0.06   0.16   0.35    -0.06  -0.16  -0.34
  35   1    -0.02  -0.01  -0.00    -0.27  -0.24  -0.01     0.26   0.22   0.01
  36   1    -0.01  -0.00   0.02     0.04  -0.04   0.02     0.05  -0.07   0.03
  37   1    -0.01  -0.02   0.04     0.01  -0.02  -0.07     0.02  -0.03  -0.09
  38   6     0.01   0.00   0.07    -0.08   0.10   0.04    -0.13   0.10   0.07
  39   1     0.01   0.01   0.04    -0.04   0.03   0.06    -0.06   0.03   0.08
  40   6    -0.05  -0.01  -0.03     0.02  -0.01  -0.01    -0.00  -0.04  -0.01
  41   1     0.00   0.02   0.01    -0.05   0.07  -0.01    -0.07   0.08  -0.01
  42   1     0.04  -0.04   0.03    -0.21   0.06  -0.13    -0.28   0.06  -0.17
  43   1    -0.04  -0.04  -0.09     0.08   0.10   0.23     0.10   0.12   0.29
  44   1    -0.06   0.08   0.01     0.18  -0.20  -0.11     0.22  -0.26  -0.15
  45   1     0.13   0.07  -0.13     0.02   0.04  -0.03     0.01   0.01  -0.00
  46   1     0.04  -0.06  -0.16     0.01  -0.02  -0.03     0.01   0.01  -0.00
  47   6     0.13   0.02  -0.10    -0.01   0.05   0.05     0.03   0.03   0.02
  48   1    -0.01   0.04  -0.04    -0.01   0.03   0.03     0.01   0.01   0.01
  49   6     0.09  -0.12   0.12     0.02  -0.04   0.00     0.05  -0.04   0.02
  50   1     0.05  -0.02  -0.01    -0.02  -0.00   0.03     0.00   0.01   0.01
  51   1     0.01   0.06  -0.04     0.03  -0.12   0.08     0.02  -0.03   0.02
  52   1     0.12  -0.17   0.02    -0.03   0.10   0.04     0.01   0.00   0.01
  53   1    -0.06  -0.04   0.18     0.04  -0.03  -0.13     0.01  -0.02  -0.02
                     19                     20                     21
                        a                      a                      a 
 Frequencies --   237.9040               243.6780               252.2772
 Red. masses --     2.4976                 3.3943                 9.1661
 Frc consts  --     0.0000                 0.0000                 0.0000
 IR Inten    --     0.0141                 0.0209                 0.1264
 Raman Activ --     0.0000                 0.0000                 0.0000
 Depolar     --     0.0000                 0.0000                 0.0000
 Atom AN      X      Y      Z        X      Y      Z        X      Y      Z
   1   7    -0.01  -0.01   0.01    -0.00  -0.01   0.01    -0.04   0.03  -0.01
   2   6     0.00  -0.00  -0.05     0.00   0.01  -0.04    -0.10   0.03   0.05
   3   6    -0.02   0.00   0.01    -0.02  -0.01   0.00     0.15  -0.08   0.00
   4   6     0.03   0.00   0.02     0.04   0.02   0.03     0.06   0.18  -0.05
   5   1    -0.00  -0.01  -0.01     0.04   0.03   0.05     0.05   0.02  -0.03
   6   6     0.01  -0.02   0.10     0.14   0.07  -0.20     0.00   0.39  -0.01
   7   1     0.02   0.01   0.00    -0.02  -0.03   0.02     0.05   0.07  -0.02
   8   6    -0.02   0.01   0.03    -0.04  -0.02   0.01     0.33  -0.04  -0.03
   9   1    -0.01   0.01   0.00    -0.01  -0.00   0.00     0.05  -0.04   0.01
  10   1    -0.01   0.00   0.00    -0.01   0.00  -0.00     0.04  -0.05   0.02
  11   1     0.00   0.00  -0.01     0.01   0.01  -0.01    -0.03   0.01   0.04
  12   6    -0.02  -0.02  -0.11    -0.05   0.01  -0.09    -0.06  -0.05   0.03
  13   1     0.01   0.01  -0.01     0.01   0.01  -0.01    -0.04   0.03   0.00
  14   6    -0.02   0.02  -0.00     0.01   0.00   0.01    -0.01  -0.03   0.02
  15   1     0.00   0.02  -0.01     0.03   0.05  -0.01    -0.00  -0.01   0.02
  16   1     0.00  -0.00  -0.00     0.04  -0.04   0.02    -0.00  -0.01   0.01
  17   6    -0.07   0.04   0.01    -0.20  -0.02  -0.02     0.01  -0.09  -0.02
  18   1    -0.06   0.04   0.01    -0.14   0.05  -0.01    -0.00  -0.02  -0.01
  19   6     0.10   0.08   0.07     0.11   0.06   0.07     0.04  -0.06  -0.02
  20   1    -0.03  -0.03  -0.01    -0.08  -0.10  -0.03     0.00  -0.03  -0.01
  21   1     0.04   0.07   0.03     0.05   0.09   0.05     0.02  -0.01  -0.01
  22   1     0.07  -0.01   0.04     0.09  -0.03   0.02     0.02  -0.02  -0.02
  23   6    -0.01  -0.04  -0.01    -0.01  -0.02   0.01    -0.03   0.04   0.05
  24   1     0.19  -0.13  -0.14     0.22  -0.15  -0.14     0.01  -0.00   0.02
  25   1    -0.26  -0.11  -0.05    -0.30  -0.11  -0.06    -0.04   0.03  -0.01
  26   1     0.03   0.18   0.16     0.03   0.22   0.19    -0.01   0.03   0.06
  27   1    -0.02   0.01   0.03    -0.01  -0.00  -0.00     0.09   0.00  -0.00
  28   6    -0.03  -0.03  -0.04    -0.02  -0.03   0.02     0.27  -0.01  -0.02
  29   1     0.01   0.01   0.01    -0.01  -0.00   0.00     0.10  -0.01  -0.01
  30   1    -0.03  -0.01  -0.02    -0.00  -0.01   0.01     0.08   0.03  -0.02
  31   1     0.01  -0.02  -0.03    -0.01  -0.01   0.01     0.07   0.03  -0.02
  32   6     0.01   0.01   0.01     0.01  -0.01   0.00    -0.14  -0.25   0.13
  33   1     0.07   0.04  -0.08    -0.00  -0.00   0.01    -0.06  -0.15   0.09
  34   1     0.03   0.04   0.11     0.01  -0.01  -0.01    -0.15  -0.00   0.00
  35   1    -0.08  -0.07  -0.01     0.01   0.01  -0.00    -0.03  -0.12   0.07
  36   1     0.02  -0.03  -0.01    -0.01   0.00  -0.02    -0.02  -0.03   0.01
  37   1    -0.01  -0.02  -0.07    -0.02   0.00  -0.03     0.00  -0.00  -0.00
  38   6    -0.15   0.06  -0.01    -0.10   0.02  -0.04    -0.07  -0.10   0.03
  39   1    -0.06   0.01   0.04    -0.04   0.00   0.01    -0.02  -0.03   0.00
  40   6     0.01  -0.04   0.03     0.01  -0.02   0.04    -0.14  -0.09  -0.04
  41   1    -0.07   0.05  -0.03    -0.05   0.01  -0.02    -0.02  -0.03   0.01
  42   1    -0.17   0.05  -0.10    -0.04   0.01  -0.02    -0.03  -0.04  -0.00
  43   1     0.08   0.09   0.21     0.04   0.03   0.07    -0.06  -0.05  -0.03
  44   1     0.14  -0.20  -0.07     0.04  -0.08   0.00    -0.05   0.01  -0.02
  45   1    -0.02  -0.06   0.07     0.08   0.11  -0.12    -0.02   0.09   0.01
  46   1    -0.00   0.06   0.07     0.03  -0.07  -0.13     0.01   0.12   0.01
  47   6     0.12  -0.04  -0.14     0.01   0.10   0.15    -0.13   0.30  -0.12
  48   1     0.03  -0.07  -0.08    -0.01   0.10   0.08    -0.07   0.08  -0.06
  49   6     0.05  -0.02   0.05     0.10  -0.11   0.03    -0.09  -0.11  -0.01
  50   1     0.07   0.03  -0.07    -0.04  -0.03   0.09    -0.06   0.12  -0.06
  51   1    -0.02   0.26  -0.18     0.08  -0.29   0.20     0.01  -0.02  -0.02
  52   1     0.15  -0.30  -0.07    -0.07   0.23   0.10     0.05  -0.10   0.00
  53   1    -0.10   0.03   0.35     0.10  -0.09  -0.31    -0.13  -0.08   0.03
                     22                     23                     24
                        a                      a                      a 
 Frequencies --   257.6653               266.1781               292.8812
 Red. masses --     9.6113                 8.8659                 8.6184
 Frc consts  --     0.0000                 0.0000                 0.0000
 IR Inten    --     0.0497                 0.0436                 0.0175
 Raman Activ --     0.0000                 0.0000                 0.0000
 Depolar     --     0.0000                 0.0000                 0.0000
 Atom AN      X      Y      Z        X      Y      Z        X      Y      Z
   1   7     0.01   0.02  -0.01    -0.04  -0.01   0.01     0.02  -0.05  -0.08
   2   6    -0.01  -0.12   0.03    -0.13   0.15  -0.09     0.15  -0.17  -0.14
   3   6     0.13   0.10   0.02    -0.06  -0.04  -0.08    -0.10  -0.18  -0.39
   4   6    -0.01  -0.05  -0.01     0.04   0.00   0.09    -0.01  -0.02   0.03
   5   1    -0.02  -0.00  -0.00     0.01   0.01   0.04    -0.00   0.02   0.04
   6   6     0.03  -0.19  -0.01     0.11   0.01   0.05    -0.06   0.07  -0.01
   7   1    -0.02  -0.02  -0.00     0.01  -0.02   0.03     0.00  -0.05   0.03
   8   6     0.26   0.20  -0.18    -0.01   0.02  -0.03     0.05   0.02  -0.08
   9   1     0.07   0.02   0.02    -0.05  -0.02  -0.03    -0.18  -0.09  -0.14
  10   1     0.02   0.01   0.05     0.01  -0.02  -0.05     0.06  -0.10  -0.23
  11   1    -0.01  -0.04  -0.01    -0.01   0.07   0.02     0.05  -0.05  -0.13
  12   6    -0.04  -0.15   0.08    -0.27   0.10  -0.33     0.09   0.00  -0.03
  13   1     0.00  -0.05   0.02    -0.03   0.09  -0.04     0.09  -0.12  -0.01
  14   6    -0.06  -0.03   0.02     0.12   0.05   0.06     0.09  -0.02   0.02
  15   1    -0.02  -0.02  -0.00     0.04   0.03   0.04     0.04   0.03  -0.00
  16   1    -0.03   0.00   0.01     0.06   0.00  -0.01     0.06  -0.03  -0.02
  17   6    -0.03  -0.03   0.05     0.16   0.08   0.10    -0.06   0.03   0.16
  18   1    -0.01  -0.01   0.02     0.08  -0.00   0.01    -0.03   0.02   0.03
  19   6     0.01  -0.04   0.08    -0.05  -0.03   0.09    -0.06  -0.09   0.29
  20   1    -0.00  -0.01   0.00     0.06   0.06   0.05    -0.02  -0.01   0.05
  21   1     0.01  -0.00   0.03    -0.03  -0.05   0.01    -0.02  -0.03   0.10
  22   1     0.01  -0.02   0.02    -0.06   0.02   0.04    -0.02  -0.02   0.09
  23   6    -0.03  -0.00   0.12    -0.02  -0.01   0.12    -0.07  -0.06   0.36
  24   1     0.01  -0.01   0.03    -0.09   0.05   0.08    -0.03  -0.02   0.13
  25   1    -0.04   0.01   0.02     0.09   0.03   0.05    -0.02   0.01   0.09
  26   1    -0.01   0.02   0.06    -0.02  -0.08  -0.03    -0.02  -0.02   0.12
  27   1     0.09   0.03  -0.06    -0.01   0.02  -0.01    -0.03   0.07  -0.00
  28   6     0.12   0.38  -0.18    -0.01   0.04  -0.01     0.04   0.10   0.02
  29   1     0.04   0.06  -0.07     0.00  -0.00  -0.00     0.06  -0.03   0.02
  30   1     0.04   0.15  -0.06     0.00   0.01  -0.00     0.04   0.05   0.01
  31   1     0.03   0.14  -0.06    -0.01   0.01   0.00    -0.01   0.04   0.03
  32   6    -0.11   0.30  -0.11    -0.01   0.04  -0.02    -0.03   0.05  -0.03
  33   1    -0.04   0.05  -0.01    -0.01   0.01   0.01    -0.04  -0.02   0.03
  34   1    -0.07   0.11  -0.05    -0.01   0.00  -0.02    -0.03  -0.00  -0.06
  35   1    -0.02   0.07  -0.02     0.01   0.02  -0.01     0.02   0.05  -0.01
  36   1     0.00  -0.04   0.03    -0.10   0.02  -0.10     0.04   0.03  -0.02
  37   1    -0.01  -0.05   0.02    -0.07   0.04  -0.07    -0.00  -0.02   0.01
  38   6    -0.12  -0.15   0.12    -0.25  -0.16  -0.29     0.07   0.12  -0.03
  39   1    -0.03  -0.03   0.05    -0.10  -0.08  -0.13     0.02   0.04   0.01
  40   6    -0.25  -0.18  -0.08    -0.05  -0.11   0.13     0.15   0.11   0.02
  41   1    -0.04  -0.02   0.03    -0.08  -0.10  -0.07     0.01   0.05  -0.02
  42   1    -0.14  -0.07  -0.05     0.11  -0.01   0.09     0.03   0.04  -0.01
  43   1    -0.09  -0.06   0.00     0.00  -0.03  -0.03     0.07   0.05   0.03
  44   1    -0.02  -0.03  -0.09    -0.11  -0.04   0.15     0.06  -0.01   0.01
  45   1     0.02  -0.04  -0.01     0.04   0.01   0.01    -0.01   0.02  -0.00
  46   1     0.01  -0.07  -0.01     0.02   0.00   0.00    -0.02   0.02  -0.01
  47   6     0.08  -0.15   0.06     0.21   0.02   0.05    -0.12   0.04  -0.06
  48   1     0.04  -0.04   0.03     0.06   0.00   0.01    -0.04   0.01  -0.02
  49   6     0.06   0.06   0.01     0.24  -0.13   0.10    -0.14   0.04  -0.05
  50   1     0.04  -0.06   0.03     0.06   0.01   0.01    -0.04   0.02  -0.03
  51   1    -0.00   0.00   0.01     0.09  -0.03   0.03    -0.05   0.02  -0.02
  52   1    -0.02   0.06   0.00     0.10  -0.07   0.03    -0.04   0.00  -0.02
  53   1     0.07   0.04  -0.02     0.02  -0.06   0.04    -0.04   0.01  -0.00
                     25                     26                     27
                        a                      a                      a 
 Frequencies --   318.8478               328.4934               392.7748
 Red. masses --     8.4378                 8.1727                 9.2300
 Frc consts  --     0.0000                 0.0000                 0.0000
 IR Inten    --     0.2887                 0.0946                 0.6002
 Raman Activ --     0.0000                 0.0000                 0.0000
 Depolar     --     0.0000                 0.0000                 0.0000
 Atom AN      X      Y      Z        X      Y      Z        X      Y      Z
   1   7     0.10  -0.02  -0.02     0.08  -0.00   0.08     0.00   0.26   0.05
   2   6     0.12  -0.11  -0.11     0.21  -0.18  -0.10     0.08   0.00  -0.03
   3   6     0.08   0.11   0.17     0.10   0.07   0.16    -0.10   0.13  -0.07
   4   6     0.17   0.04  -0.42    -0.08  -0.02   0.36     0.05   0.26   0.09
   5   1     0.04  -0.09  -0.24    -0.02   0.08   0.20    -0.01   0.07   0.01
   6   6     0.02  -0.02  -0.05    -0.05   0.13  -0.01     0.18  -0.13   0.02
   7   1     0.10   0.15  -0.18    -0.06  -0.13   0.16    -0.00   0.09   0.02
   8   6    -0.04  -0.04   0.04    -0.03  -0.01   0.05    -0.11   0.06  -0.02
   9   1     0.10   0.07   0.06     0.09   0.04   0.06    -0.06   0.02  -0.03
  10   1    -0.02   0.06   0.10    -0.01   0.06   0.09    -0.01   0.04  -0.06
  11   1     0.04  -0.03  -0.09     0.07  -0.06  -0.14     0.01  -0.02  -0.07
  12   6    -0.05  -0.01  -0.07    -0.06  -0.03  -0.10     0.02   0.00  -0.05
  13   1     0.08  -0.07  -0.01     0.15  -0.12   0.02     0.07  -0.03   0.02
  14   6     0.18   0.08   0.02     0.34   0.02   0.08    -0.05   0.30  -0.01
  15   1     0.08   0.07  -0.02     0.15   0.11   0.05    -0.02   0.08   0.01
  16   1     0.09  -0.00  -0.01     0.19  -0.08   0.03    -0.01   0.08   0.02
  17   6    -0.03   0.26   0.16     0.10  -0.08  -0.03     0.02  -0.02  -0.24
  18   1    -0.00   0.08   0.03     0.00   0.00  -0.04     0.00   0.01  -0.13
  19   6    -0.14   0.17   0.22     0.03  -0.03  -0.13     0.10  -0.27  -0.06
  20   1    -0.02   0.06   0.07     0.01  -0.06   0.03     0.01  -0.02  -0.12
  21   1    -0.05   0.02   0.08     0.01  -0.02  -0.06     0.03  -0.06  -0.02
  22   1    -0.07   0.06   0.10    -0.00   0.00  -0.05     0.03  -0.08  -0.03
  23   6     0.01  -0.09   0.06     0.03   0.03  -0.11    -0.06   0.05   0.18
  24   1    -0.00  -0.01  -0.01    -0.01   0.02  -0.02    -0.03   0.01   0.13
  25   1     0.04  -0.08   0.07     0.03   0.02  -0.03    -0.04   0.12  -0.03
  26   1     0.01  -0.04  -0.05     0.01  -0.01  -0.04    -0.03   0.02   0.13
  27   1     0.01  -0.05  -0.01     0.01  -0.04   0.01    -0.03   0.04  -0.02
  28   6    -0.00  -0.12   0.02    -0.10   0.02  -0.01     0.10  -0.14   0.04
  29   1    -0.04   0.01  -0.01    -0.03   0.00   0.00    -0.03   0.03  -0.02
  30   1    -0.01  -0.04   0.01    -0.04  -0.00  -0.00     0.03  -0.05   0.02
  31   1     0.01  -0.04   0.00    -0.02   0.00  -0.01     0.02  -0.05   0.02
  32   6     0.02  -0.11   0.05     0.03   0.11  -0.05     0.01  -0.24   0.10
  33   1     0.01  -0.02   0.01     0.02   0.06  -0.04    -0.00  -0.10   0.05
  34   1     0.01  -0.02   0.03     0.05   0.01   0.00    -0.05  -0.03   0.02
  35   1    -0.00  -0.04   0.02     0.00   0.04  -0.02     0.00  -0.10   0.04
  36   1    -0.00   0.04  -0.03    -0.02   0.05  -0.05     0.00   0.01  -0.02
  37   1    -0.04  -0.01   0.01    -0.05  -0.03   0.01     0.00  -0.00  -0.01
  38   6    -0.12  -0.07  -0.01    -0.14  -0.05  -0.04    -0.06  -0.05   0.02
  39   1    -0.04  -0.03   0.00    -0.05  -0.02   0.00    -0.02  -0.02   0.02
  40   6    -0.11  -0.10  -0.00    -0.09  -0.09   0.02    -0.08  -0.07  -0.00
  41   1    -0.04  -0.02  -0.01    -0.06  -0.01  -0.02    -0.03  -0.01  -0.00
  42   1    -0.04  -0.03  -0.01    -0.03  -0.02  -0.00    -0.04  -0.02  -0.01
  43   1    -0.03  -0.02   0.01    -0.01  -0.01   0.02    -0.03  -0.02   0.00
  44   1    -0.02  -0.03  -0.01    -0.02  -0.05   0.00    -0.01  -0.01  -0.01
  45   1    -0.06  -0.04   0.01     0.05   0.06  -0.01     0.13  -0.03   0.01
  46   1     0.06   0.02   0.05    -0.06   0.00  -0.05     0.07  -0.08  -0.01
  47   6    -0.11  -0.05   0.02    -0.18   0.08  -0.10    -0.00  -0.26   0.02
  48   1    -0.03   0.01   0.02    -0.06   0.02  -0.04     0.01  -0.06   0.02
  49   6    -0.12   0.08  -0.06    -0.22   0.05  -0.07    -0.07   0.10  -0.03
  50   1    -0.04  -0.03   0.02    -0.06   0.04  -0.04     0.01  -0.09   0.02
  51   1    -0.04   0.01  -0.01    -0.07   0.03  -0.03    -0.07   0.06  -0.03
  52   1    -0.08   0.06  -0.02    -0.05   0.01  -0.02    -0.07   0.06  -0.03
  53   1     0.02   0.04  -0.04    -0.06   0.02  -0.00     0.07   0.09   0.01
                     28                     29                     30
                        a                      a                      a 
 Frequencies --   408.8026               430.2893               445.9940
 Red. masses --     9.0525                 8.7706                 8.7405
 Frc consts  --     0.0000                 0.0000                 0.0000
 IR Inten    --     0.1889                 0.6760                 0.9972
 Raman Activ --     0.0000                 0.0000                 0.0000
 Depolar     --     0.0000                 0.0000                 0.0000
 Atom AN      X      Y      Z        X      Y      Z        X      Y      Z
   1   7    -0.07  -0.04   0.20    -0.17   0.03  -0.06    -0.05  -0.01  -0.02
   2   6    -0.00  -0.27   0.26     0.01  -0.07  -0.21    -0.03  -0.21   0.10
   3   6    -0.20  -0.00   0.07    -0.29   0.20   0.07     0.13   0.00   0.14
   4   6     0.10   0.08  -0.03    -0.23  -0.08  -0.02    -0.18  -0.14  -0.13
   5   1     0.04  -0.03  -0.06    -0.09   0.01   0.02    -0.06  -0.07  -0.08
   6   6     0.11  -0.02  -0.02    -0.20  -0.07  -0.03    -0.23  -0.01  -0.05
   7   1     0.03   0.09  -0.04    -0.08  -0.05   0.01    -0.05   0.01  -0.06
   8   6     0.05   0.13  -0.11    -0.11   0.26  -0.11     0.06  -0.06   0.07
   9   1    -0.07  -0.02   0.03    -0.04   0.08   0.02     0.11   0.03   0.05
  10   1    -0.04  -0.02   0.01    -0.10   0.07   0.05    -0.01   0.01   0.11
  11   1     0.00  -0.08   0.02    -0.01  -0.04  -0.14    -0.03  -0.08  -0.02
  12   6    -0.21  -0.21   0.02     0.12   0.02   0.02    -0.10  -0.17   0.09
  13   1     0.03  -0.11   0.09     0.06  -0.07  -0.03     0.01  -0.10   0.04
  14   6    -0.04  -0.04   0.13     0.16  -0.05   0.05     0.04   0.31  -0.13
  15   1    -0.02  -0.02   0.04     0.09   0.08   0.06     0.02   0.11  -0.05
  16   1    -0.02  -0.00   0.03     0.12  -0.09  -0.00     0.03   0.07  -0.05
  17   6     0.03  -0.05   0.05     0.05  -0.03   0.08     0.03   0.16  -0.26
  18   1     0.01  -0.02   0.02     0.01  -0.00   0.03     0.01   0.06  -0.14
  19   6     0.00   0.08  -0.09    -0.02   0.05  -0.00     0.06  -0.22   0.00
  20   1     0.01  -0.01   0.02     0.00  -0.02   0.05     0.01   0.02  -0.12
  21   1     0.00   0.02  -0.04    -0.01  -0.00  -0.01     0.02  -0.06   0.01
  22   1     0.00   0.03  -0.03    -0.02   0.02   0.00     0.01  -0.06   0.01
  23   6     0.03   0.03  -0.17     0.01  -0.01  -0.05    -0.05   0.01   0.21
  24   1     0.01   0.01  -0.08     0.00   0.00  -0.03    -0.03   0.00   0.13
  25   1     0.02  -0.03  -0.02     0.01  -0.02   0.00    -0.03   0.10  -0.01
  26   1     0.01   0.00  -0.08     0.01  -0.01  -0.04    -0.03   0.01   0.13
  27   1     0.02   0.05  -0.05    -0.01   0.11  -0.07     0.02  -0.06   0.03
  28   6     0.18   0.09  -0.08     0.26  -0.03  -0.05    -0.07   0.01   0.01
  29   1    -0.00   0.07  -0.05    -0.06   0.13  -0.07     0.00  -0.01   0.01
  30   1     0.06   0.04  -0.02     0.07  -0.01  -0.01    -0.03   0.00   0.00
  31   1     0.04   0.04  -0.01     0.07  -0.01  -0.01    -0.01   0.01  -0.01
  32   6    -0.05  -0.03   0.03    -0.03  -0.22   0.11     0.01   0.07  -0.03
  33   1    -0.02  -0.05   0.03    -0.02  -0.13   0.07     0.01   0.04  -0.02
  34   1    -0.08   0.04  -0.00    -0.12   0.02   0.02     0.03  -0.00  -0.00
  35   1    -0.02  -0.05   0.03    -0.02  -0.14   0.06     0.00   0.04  -0.02
  36   1    -0.11  -0.09  -0.01     0.06   0.04   0.00    -0.06  -0.05   0.01
  37   1    -0.12  -0.10   0.01     0.03   0.01   0.01    -0.07  -0.08   0.03
  38   6    -0.05   0.13  -0.29     0.08   0.01   0.10     0.01   0.08  -0.11
  39   1    -0.01   0.04  -0.07     0.03   0.01   0.04     0.01   0.03  -0.02
  40   6     0.24   0.16   0.08     0.00   0.02  -0.03     0.13   0.10   0.03
  41   1    -0.01   0.04  -0.08     0.02   0.01   0.02     0.01   0.03  -0.03
  42   1     0.14   0.10   0.04    -0.02  -0.01  -0.02     0.07   0.05   0.02
  43   1     0.14   0.10   0.05    -0.02  -0.01  -0.01     0.07   0.05   0.02
  44   1     0.02  -0.07   0.13     0.02   0.03  -0.04     0.02  -0.02   0.06
  45   1     0.05  -0.01  -0.00    -0.08  -0.01  -0.02    -0.12   0.00  -0.02
  46   1     0.05  -0.02  -0.00    -0.09   0.00  -0.02    -0.09   0.03  -0.01
  47   6    -0.05  -0.10  -0.01     0.13   0.09   0.05     0.07   0.17   0.01
  48   1    -0.02  -0.01   0.00     0.05   0.01   0.01     0.03   0.04   0.00
  49   6    -0.09   0.05  -0.03     0.20  -0.08   0.08     0.15  -0.08   0.06
  50   1    -0.02  -0.04   0.00     0.05   0.02   0.02     0.03   0.05   0.00
  51   1    -0.05   0.02  -0.02     0.10  -0.04   0.04     0.09  -0.05   0.03
  52   1    -0.05   0.03  -0.02     0.09  -0.05   0.03     0.09  -0.05   0.03
  53   1     0.02   0.04  -0.00    -0.01  -0.07   0.01    -0.04  -0.07  -0.01
                     31                     32                     33
                        a                      a                      a 
 Frequencies --   523.2401               561.3034               583.0880
 Red. masses --     8.7156                 9.4919                10.1588
 Frc consts  --     0.0000                 0.0000                 0.0000
 IR Inten    --     0.2370                 1.7852                 2.8443
 Raman Activ --     0.0000                 0.0000                 0.0000
 Depolar     --     0.0000                 0.0000                 0.0000
 Atom AN      X      Y      Z        X      Y      Z        X      Y      Z
   1   7     0.09  -0.24  -0.32     0.45   0.02   0.11     0.07   0.35  -0.30
   2   6    -0.20  -0.00   0.03     0.33   0.08   0.31    -0.09  -0.12   0.04
   3   6    -0.04   0.19   0.07     0.02   0.19  -0.16     0.33   0.25  -0.25
   4   6     0.19  -0.13   0.16     0.00  -0.28  -0.03    -0.18   0.28  -0.01
   5   1     0.05   0.07   0.16    -0.04  -0.04   0.01    -0.12   0.17   0.05
   6   6     0.16   0.08   0.08    -0.19  -0.03  -0.04    -0.07  -0.06  -0.00
   7   1     0.06  -0.19   0.11    -0.03  -0.10  -0.00    -0.07  -0.02   0.04
   8   6    -0.11   0.16  -0.00    -0.15   0.15  -0.05    -0.00  -0.06   0.03
   9   1     0.12   0.15   0.02    -0.06   0.05  -0.07     0.12   0.08  -0.07
  10   1    -0.09   0.09   0.13     0.04   0.11  -0.13     0.07   0.08  -0.03
  11   1    -0.04   0.03   0.16     0.12   0.05   0.13    -0.07  -0.07  -0.01
  12   6    -0.09  -0.05   0.09    -0.03   0.02  -0.05    -0.12  -0.17   0.12
  13   1    -0.19   0.07  -0.05     0.06   0.06   0.06    -0.05  -0.07   0.02
  14   6     0.08  -0.14  -0.34    -0.06  -0.00  -0.00     0.02  -0.15   0.00
  15   1     0.04  -0.01  -0.13    -0.09  -0.17  -0.09    -0.01  -0.07   0.04
  16   1     0.03  -0.05  -0.11    -0.17   0.13   0.04    -0.02  -0.03   0.04
  17   6    -0.02   0.13  -0.08    -0.04  -0.01  -0.02    -0.00  -0.13   0.16
  18   1     0.01   0.02   0.00    -0.02   0.01  -0.02    -0.01  -0.04   0.09
  19   6    -0.01  -0.02   0.10    -0.01  -0.01  -0.01    -0.04   0.10   0.06
  20   1     0.00   0.06  -0.01    -0.02  -0.02  -0.00    -0.01  -0.03   0.09
  21   1    -0.01  -0.00   0.05     0.00   0.01   0.01    -0.01   0.02   0.01
  22   1    -0.01  -0.01   0.05     0.01  -0.01  -0.00    -0.01   0.02   0.01
  23   6    -0.02  -0.05   0.15     0.00   0.00   0.00     0.01  -0.01  -0.02
  24   1    -0.01  -0.01   0.06     0.00  -0.00   0.01     0.01  -0.00  -0.04
  25   1    -0.01   0.01   0.03     0.00   0.00  -0.00     0.01  -0.05   0.03
  26   1    -0.01  -0.01   0.06     0.00   0.00   0.00     0.01  -0.00  -0.04
  27   1    -0.01   0.04  -0.02    -0.04   0.06  -0.02    -0.02  -0.05   0.05
  28   6     0.09  -0.00  -0.02     0.07  -0.02  -0.01    -0.09  -0.10   0.07
  29   1    -0.05   0.08  -0.03    -0.03   0.05  -0.02     0.03  -0.07   0.05
  30   1     0.01  -0.02  -0.00     0.02  -0.02   0.01    -0.02  -0.04   0.03
  31   1     0.03  -0.01  -0.01     0.01  -0.02   0.01    -0.02  -0.04   0.02
  32   6     0.00  -0.07   0.03     0.02  -0.09   0.04     0.04  -0.09   0.03
  33   1    -0.00  -0.05   0.02    -0.00  -0.05   0.03     0.01  -0.01   0.00
  34   1    -0.04   0.01   0.01    -0.04   0.00   0.01     0.04  -0.05   0.01
  35   1    -0.00  -0.05   0.02     0.00  -0.05   0.02     0.01  -0.01   0.00
  36   1    -0.03  -0.04   0.03    -0.04  -0.02  -0.02    -0.06  -0.06   0.02
  37   1    -0.01  -0.01   0.01    -0.05  -0.02  -0.01    -0.07  -0.07   0.03
  38   6     0.02   0.04  -0.03    -0.10  -0.04  -0.07    -0.05   0.02  -0.10
  39   1     0.01   0.01  -0.02    -0.04  -0.02  -0.03    -0.00   0.01  -0.02
  40   6     0.06   0.06  -0.00    -0.08  -0.09   0.03     0.04   0.04   0.00
  41   1     0.03   0.01   0.00    -0.04  -0.03  -0.02    -0.00   0.01  -0.02
  42   1     0.03   0.02   0.01    -0.02  -0.02   0.01     0.04   0.03   0.01
  43   1     0.03   0.03  -0.00    -0.02  -0.02   0.01     0.04   0.03   0.01
  44   1     0.01  -0.00   0.02    -0.03  -0.04   0.02    -0.01  -0.04   0.04
  45   1     0.06   0.01   0.03    -0.13  -0.00  -0.02     0.01  -0.01  -0.00
  46   1     0.04   0.02   0.02    -0.09   0.04  -0.01    -0.01  -0.03  -0.01
  47   6    -0.06  -0.05  -0.01    -0.03   0.15  -0.02     0.05  -0.04   0.02
  48   1    -0.03  -0.01  -0.01    -0.01   0.03  -0.01     0.03  -0.03   0.01
  49   6    -0.12   0.03  -0.04    -0.02  -0.02  -0.01     0.09  -0.00   0.03
  50   1    -0.03  -0.00  -0.01    -0.01   0.04  -0.01     0.03  -0.01   0.01
  51   1    -0.06   0.02  -0.02     0.02  -0.02   0.01     0.03  -0.00   0.01
  52   1    -0.06   0.02  -0.02     0.02  -0.02   0.01     0.03  -0.01   0.01
  53   1     0.01   0.03   0.00    -0.06  -0.04  -0.02     0.02  -0.00   0.01
                     34                     35                     36
                        a                      a                      a 
 Frequencies --   776.3566               779.8259               785.1834
 Red. masses --     3.4699                 1.9700                 1.8977
 Frc consts  --     0.0000                 0.0000                 0.0000
 IR Inten    --    13.8571                24.1133                 4.3934
 Raman Activ --     0.0000                 0.0000                 0.0000
 Depolar     --     0.0000                 0.0000                 0.0000
 Atom AN      X      Y      Z        X      Y      Z        X      Y      Z
   1   7    -0.02   0.02  -0.04     0.03  -0.01  -0.02     0.00   0.05   0.00
   2   6    -0.18  -0.02  -0.14    -0.04   0.02  -0.01    -0.06   0.04   0.02
   3   6     0.01   0.01  -0.04     0.02   0.02   0.08     0.02   0.02   0.01
   4   6     0.11  -0.14  -0.05    -0.04   0.03   0.03     0.06  -0.05  -0.06
   5   1     0.08   0.05   0.12    -0.05  -0.03  -0.06     0.06   0.08   0.12
   6   6     0.08   0.02  -0.07    -0.02   0.00   0.08     0.04  -0.00  -0.10
   7   1    -0.06  -0.16   0.03     0.06   0.06  -0.01    -0.08  -0.13   0.03
   8   6    -0.01   0.01  -0.00     0.03   0.06   0.13     0.03   0.03   0.07
   9   1     0.05   0.01  -0.00    -0.19   0.03  -0.06    -0.09   0.00  -0.03
  10   1    -0.02   0.02   0.02     0.13  -0.13  -0.10     0.06  -0.05  -0.06
  11   1    -0.06  -0.02  -0.07     0.01   0.02  -0.05     0.03   0.02  -0.16
  12   6    -0.01  -0.04   0.01    -0.02   0.01   0.02    -0.05   0.05   0.05
  13   1    -0.03  -0.03  -0.02    -0.01  -0.06   0.02     0.04  -0.14   0.07
  14   6     0.07   0.17   0.22     0.08  -0.06  -0.07    -0.02   0.03   0.03
  15   1    -0.11  -0.20   0.10    -0.03  -0.12  -0.01     0.02   0.06  -0.01
  16   1    -0.15   0.22  -0.01    -0.05   0.07  -0.06     0.03  -0.03   0.03
  17   6     0.12  -0.00   0.06     0.05   0.02  -0.01    -0.07  -0.02  -0.01
  18   1    -0.26   0.24  -0.08    -0.12   0.11  -0.02     0.13  -0.12  -0.00
  19   6     0.09   0.01   0.00     0.03   0.03   0.02    -0.07  -0.04  -0.03
  20   1    -0.10  -0.35  -0.01    -0.04  -0.16  -0.02     0.03   0.16   0.06
  21   1    -0.05  -0.24  -0.07    -0.03  -0.11  -0.02     0.04   0.18   0.03
  22   1    -0.18   0.15  -0.01    -0.10   0.09   0.00     0.15  -0.13   0.01
  23   6     0.01   0.02  -0.03     0.00  -0.01   0.02    -0.01  -0.00  -0.01
  24   1    -0.05   0.05  -0.08    -0.02   0.02  -0.04     0.04  -0.04   0.07
  25   1    -0.02  -0.00  -0.02    -0.01  -0.01   0.01     0.03   0.02  -0.00
  26   1    -0.04  -0.07   0.04    -0.02  -0.04   0.03     0.03   0.07  -0.05
  27   1    -0.01   0.02   0.01     0.26  -0.09  -0.23     0.13  -0.03  -0.12
  28   6     0.00   0.00   0.01     0.02   0.05   0.11     0.00   0.02   0.08
  29   1     0.01  -0.02   0.02    -0.34  -0.05  -0.10    -0.17  -0.04  -0.05
  30   1    -0.01  -0.00  -0.00    -0.30  -0.07  -0.09    -0.18  -0.04  -0.05
  31   1     0.01  -0.01  -0.01     0.23  -0.06  -0.21     0.13  -0.04  -0.12
  32   6     0.00  -0.00   0.00     0.00   0.01   0.01     0.00  -0.00   0.01
  33   1     0.00  -0.01   0.00     0.07  -0.11  -0.03     0.04  -0.07  -0.02
  34   1    -0.00   0.00  -0.00    -0.01  -0.02  -0.04     0.00  -0.02  -0.02
  35   1    -0.00  -0.00  -0.00    -0.09   0.07  -0.08    -0.06   0.05  -0.05
  36   1    -0.04  -0.00  -0.02     0.02  -0.07   0.04     0.10  -0.16   0.12
  37   1     0.03   0.02   0.04     0.02  -0.00  -0.08     0.05   0.00  -0.22
  38   6     0.04  -0.02   0.02    -0.01   0.01   0.01    -0.05   0.05   0.02
  39   1     0.00   0.01   0.07     0.01  -0.00  -0.05     0.02  -0.01  -0.18
  40   6     0.03   0.03  -0.01     0.00   0.01   0.00    -0.01   0.01   0.00
  41   1    -0.02   0.05  -0.03     0.03  -0.03   0.03     0.09  -0.12   0.10
  42   1     0.01   0.03  -0.01    -0.00  -0.02   0.01    -0.01  -0.07   0.02
  43   1    -0.01  -0.00   0.01     0.01   0.01  -0.01     0.06   0.03  -0.05
  44   1     0.00   0.02  -0.00     0.01  -0.00  -0.00     0.01  -0.02  -0.00
  45   1    -0.12  -0.15   0.09     0.09   0.16  -0.09    -0.14  -0.21   0.13
  46   1     0.05   0.18   0.12    -0.01  -0.18  -0.10     0.03   0.23   0.15
  47   6     0.02  -0.02  -0.05    -0.03   0.02   0.07     0.03  -0.01  -0.10
  48   1     0.00   0.14   0.08    -0.01  -0.16  -0.10     0.02   0.22   0.13
  49   6    -0.02  -0.01  -0.01     0.00   0.00   0.01    -0.00  -0.00  -0.01
  50   1    -0.07  -0.13   0.08     0.08   0.15  -0.09    -0.11  -0.19   0.12
  51   1    -0.08  -0.01   0.01     0.08   0.02  -0.01    -0.11  -0.03   0.02
  52   1     0.03   0.03   0.04    -0.05  -0.03  -0.05     0.07   0.04   0.08
  53   1     0.00   0.01   0.02     0.01  -0.00  -0.03    -0.01   0.00   0.03
                     37                     38                     39
                        a                      a                      a 
 Frequencies --   790.4814               805.3442               826.8220
 Red. masses --     2.0643                 6.9643                 4.2236
 Frc consts  --     0.0000                 0.0000                 0.0000
 IR Inten    --     6.6241                 1.9173                 0.9005
 Raman Activ --     0.0000                 0.0000                 0.0000
 Depolar     --     0.0000                 0.0000                 0.0000
 Atom AN      X      Y      Z        X      Y      Z        X      Y      Z
   1   7    -0.01   0.02  -0.01    -0.00  -0.01  -0.01    -0.02  -0.04   0.03
   2   6     0.10  -0.03   0.00    -0.24  -0.03  -0.20     0.00  -0.07  -0.08
   3   6    -0.04  -0.03   0.06     0.14   0.13  -0.13     0.15   0.13  -0.18
   4   6    -0.04   0.10  -0.03     0.17  -0.33  -0.01     0.04  -0.19   0.12
   5   1     0.01   0.08   0.06     0.07  -0.11  -0.01    -0.01  -0.18  -0.13
   6   6    -0.02  -0.01  -0.05     0.07   0.02   0.05     0.02  -0.01   0.06
   7   1    -0.07  -0.03   0.01     0.06  -0.07  -0.01     0.11   0.12  -0.03
   8   6     0.04   0.01   0.06    -0.05   0.06  -0.01    -0.05   0.05  -0.03
   9   1    -0.11  -0.01  -0.02     0.04   0.05  -0.04     0.07   0.04  -0.04
  10   1     0.05  -0.08  -0.05     0.04   0.05  -0.04     0.02   0.07  -0.03
  11   1    -0.04  -0.03   0.19    -0.08  -0.02  -0.07    -0.04  -0.03   0.12
  12   6     0.08  -0.09  -0.06    -0.03  -0.07   0.02     0.00  -0.05  -0.01
  13   1    -0.04   0.18  -0.08    -0.05  -0.03  -0.04    -0.06   0.10  -0.08
  14   6    -0.02  -0.04  -0.05    -0.06   0.25   0.32    -0.24   0.09   0.12
  15   1     0.02   0.04  -0.01    -0.03   0.04   0.09     0.06   0.27   0.04
  16   1     0.03  -0.04  -0.01    -0.03   0.08   0.09     0.13  -0.17   0.09
  17   6    -0.01   0.00  -0.01    -0.03  -0.07   0.07    -0.07  -0.05   0.03
  18   1     0.06  -0.05   0.01     0.09  -0.07  -0.07     0.05  -0.09   0.13
  19   6    -0.03  -0.01  -0.00    -0.11  -0.07  -0.05     0.15   0.02   0.02
  20   1     0.02   0.09   0.03     0.02   0.08   0.07     0.06   0.10  -0.13
  21   1     0.02   0.07   0.02     0.06   0.23  -0.01    -0.05  -0.23   0.02
  22   1     0.05  -0.05   0.01     0.18  -0.17   0.02    -0.14   0.15  -0.10
  23   6    -0.00  -0.01   0.01    -0.02   0.03  -0.07     0.05   0.03  -0.02
  24   1     0.01  -0.02   0.03     0.06  -0.06   0.09    -0.07   0.10  -0.17
  25   1     0.01   0.00   0.00     0.05   0.02  -0.00    -0.07  -0.02  -0.03
  26   1     0.01   0.02  -0.01     0.06   0.11  -0.11    -0.07  -0.13   0.11
  27   1     0.13  -0.05  -0.10    -0.00   0.01  -0.01    -0.01   0.03  -0.02
  28   6     0.02   0.03   0.06    -0.01   0.00   0.03    -0.00   0.03   0.08
  29   1    -0.16  -0.03  -0.05    -0.03  -0.02   0.00    -0.01  -0.04   0.02
  30   1    -0.16  -0.03  -0.05    -0.05  -0.02  -0.01    -0.13  -0.00  -0.04
  31   1     0.12  -0.04  -0.11     0.03  -0.03  -0.02     0.09  -0.07  -0.06
  32   6    -0.00   0.02   0.01     0.02  -0.03   0.02     0.03  -0.02   0.03
  33   1     0.04  -0.06  -0.02     0.02  -0.04   0.00     0.05  -0.10  -0.01
  34   1    -0.00  -0.01  -0.02    -0.00  -0.01  -0.01    -0.01  -0.02  -0.03
  35   1    -0.06   0.05  -0.05    -0.01  -0.00  -0.01    -0.06   0.04  -0.05
  36   1    -0.17   0.24  -0.19    -0.04   0.02  -0.02     0.03   0.09  -0.02
  37   1    -0.06   0.01   0.36     0.02   0.02   0.06    -0.06  -0.04   0.06
  38   6     0.08  -0.10  -0.08     0.05  -0.04   0.01    -0.03   0.04   0.03
  39   1    -0.05   0.02   0.34    -0.01   0.00   0.12     0.04   0.02  -0.07
  40   6     0.01  -0.02  -0.01     0.04   0.03  -0.02    -0.00   0.02   0.00
  41   1    -0.17   0.23  -0.20    -0.03   0.09  -0.05     0.02  -0.07   0.05
  42   1     0.03   0.16  -0.04     0.03   0.08  -0.02    -0.01  -0.06   0.02
  43   1    -0.12  -0.06   0.11    -0.04  -0.01   0.04     0.06   0.03  -0.04
  44   1    -0.04   0.03   0.03    -0.01   0.03   0.01     0.02  -0.02  -0.01
  45   1    -0.06  -0.10   0.06    -0.01   0.11  -0.07     0.10   0.02   0.00
  46   1     0.01   0.10   0.07     0.03  -0.08  -0.04    -0.08  -0.01  -0.06
  47   6     0.02  -0.02  -0.05    -0.04   0.04   0.09     0.03   0.04  -0.09
  48   1     0.02   0.10   0.06    -0.05  -0.15  -0.11     0.05   0.12   0.08
  49   6     0.02   0.00   0.00    -0.07  -0.00   0.00    -0.03   0.00  -0.04
  50   1    -0.05  -0.09   0.06     0.09   0.16  -0.09    -0.11  -0.08   0.04
  51   1    -0.05  -0.01   0.01     0.09   0.03  -0.02    -0.12  -0.03   0.01
  52   1     0.04   0.02   0.04    -0.10  -0.03  -0.08     0.08   0.03   0.08
  53   1    -0.00   0.00   0.02     0.00  -0.00  -0.04    -0.04  -0.00   0.04
                     40                     41                     42
                        a                      a                      a 
 Frequencies --   835.1145               836.6576               838.8944
 Red. masses --     3.0605                 2.8588                 2.9654
 Frc consts  --     0.0000                 0.0000                 0.0000
 IR Inten    --     0.4255                 1.2007                 1.2922
 Raman Activ --     0.0000                 0.0000                 0.0000
 Depolar     --     0.0000                 0.0000                 0.0000
 Atom AN      X      Y      Z        X      Y      Z        X      Y      Z
   1   7     0.00  -0.02  -0.05    -0.04  -0.04   0.00    -0.03   0.06  -0.02
   2   6     0.14  -0.14  -0.08     0.03   0.09   0.15     0.07   0.03   0.09
   3   6    -0.11  -0.11  -0.03    -0.08  -0.11  -0.17    -0.05  -0.03   0.00
   4   6    -0.02   0.11  -0.06    -0.04   0.04   0.04     0.09  -0.01  -0.19
   5   1    -0.00   0.08   0.05    -0.02  -0.04  -0.05     0.09   0.18   0.20
   6   6    -0.01  -0.00  -0.04    -0.01   0.00   0.01     0.04   0.01  -0.11
   7   1    -0.07  -0.04   0.01     0.04   0.07  -0.01    -0.17  -0.23   0.04
   8   6    -0.00  -0.05  -0.04    -0.04  -0.05  -0.11     0.02  -0.03  -0.02
   9   1     0.12  -0.03   0.05     0.33  -0.04   0.08     0.02  -0.03   0.03
  10   1    -0.11   0.03   0.09    -0.23   0.16   0.19    -0.03   0.00   0.02
  11   1    -0.05  -0.06   0.28     0.08   0.05  -0.13     0.03   0.01  -0.04
  12   6     0.07  -0.07  -0.06    -0.02   0.08  -0.00     0.01   0.03   0.01
  13   1    -0.07   0.25  -0.14     0.08  -0.12   0.11     0.04  -0.04   0.05
  14   6     0.04   0.08   0.09     0.05  -0.03  -0.05    -0.15   0.02   0.02
  15   1    -0.04  -0.07   0.05    -0.01  -0.05  -0.01     0.05   0.19  -0.01
  16   1    -0.06   0.09  -0.01    -0.02   0.02  -0.00     0.09  -0.14   0.07
  17   6     0.04  -0.00   0.02     0.02   0.01  -0.01    -0.08  -0.02  -0.01
  18   1    -0.03   0.05  -0.06    -0.01   0.01  -0.02     0.05  -0.08   0.11
  19   6    -0.06  -0.03  -0.02    -0.03   0.01   0.01     0.13   0.01   0.01
  20   1    -0.02  -0.06   0.05    -0.01  -0.02   0.01     0.04   0.12  -0.06
  21   1     0.03   0.10  -0.02     0.01   0.04  -0.00    -0.04  -0.19   0.04
  22   1     0.06  -0.07   0.04     0.02  -0.02   0.02    -0.10   0.12  -0.09
  23   6    -0.02  -0.00  -0.02    -0.01  -0.01   0.01     0.05   0.02  -0.01
  24   1     0.03  -0.04   0.07     0.01  -0.02   0.03    -0.06   0.09  -0.14
  25   1     0.04   0.01   0.00     0.01  -0.01   0.01    -0.07  -0.00  -0.04
  26   1     0.03   0.07  -0.06     0.01   0.02  -0.02    -0.06  -0.12   0.12
  27   1    -0.05   0.07   0.02    -0.14   0.21   0.05    -0.01   0.02   0.00
  28   6     0.05   0.05   0.07     0.05   0.08   0.15    -0.01   0.01   0.03
  29   1     0.06  -0.05   0.04     0.18  -0.12   0.11     0.03  -0.02   0.01
  30   1    -0.12   0.04  -0.06    -0.24   0.07  -0.11    -0.05   0.01  -0.02
  31   1     0.12  -0.07  -0.07     0.20  -0.15  -0.11     0.03  -0.03  -0.02
  32   6     0.00   0.04   0.02     0.01   0.04   0.06    -0.00   0.01   0.01
  33   1     0.06  -0.12  -0.02     0.12  -0.22  -0.03     0.02  -0.03  -0.01
  34   1    -0.03  -0.00  -0.05    -0.03  -0.03  -0.10     0.01  -0.02  -0.01
  35   1    -0.08   0.07  -0.07    -0.15   0.14  -0.13    -0.03   0.03  -0.03
  36   1     0.05   0.20  -0.07    -0.02  -0.11   0.03     0.00  -0.03   0.01
  37   1    -0.14  -0.09   0.14     0.07   0.06  -0.09     0.03   0.02  -0.02
  38   6    -0.10   0.12   0.09     0.06  -0.06  -0.04    -0.01  -0.01  -0.04
  39   1     0.11   0.06  -0.24    -0.06  -0.04   0.12    -0.02  -0.01   0.01
  40   6    -0.04   0.05   0.03     0.01  -0.04  -0.01    -0.02  -0.02  -0.00
  41   1     0.04  -0.23   0.15    -0.02   0.11  -0.07    -0.01   0.02  -0.02
  42   1    -0.07  -0.24   0.06     0.02   0.11  -0.03     0.01   0.02  -0.00
  43   1     0.18   0.10  -0.14    -0.10  -0.06   0.07    -0.01  -0.01   0.01
  44   1     0.07  -0.06  -0.05    -0.03   0.04   0.02    -0.02  -0.01   0.02
  45   1    -0.05  -0.01  -0.00     0.06   0.03  -0.01    -0.20  -0.08   0.02
  46   1     0.03   0.02   0.03    -0.04  -0.02  -0.04     0.15   0.10   0.14
  47   6    -0.02  -0.02   0.05     0.01  -0.02  -0.01    -0.06  -0.01   0.17
  48   1    -0.03  -0.06  -0.04     0.01   0.00   0.01    -0.13  -0.19  -0.15
  49   6     0.01  -0.00   0.03     0.01  -0.00  -0.00    -0.02   0.00   0.07
  50   1     0.06   0.04  -0.02    -0.01  -0.01   0.00     0.21   0.15  -0.07
  51   1     0.07   0.02  -0.01    -0.02  -0.00  -0.00     0.24   0.05  -0.02
  52   1    -0.05  -0.02  -0.04     0.01   0.01   0.01    -0.19  -0.06  -0.16
  53   1     0.02   0.00  -0.02     0.01   0.01   0.01     0.05  -0.00  -0.09
                     43                     44                     45
                        a                      a                      a 
 Frequencies --   937.3079               939.6404               943.4289
 Red. masses --     5.3571                 6.0820                 5.2927
 Frc consts  --     0.0000                 0.0000                 0.0000
 IR Inten    --    11.4169                11.9908                 4.0880
 Raman Activ --     0.0000                 0.0000                 0.0000
 Depolar     --     0.0000                 0.0000                 0.0000
 Atom AN      X      Y      Z        X      Y      Z        X      Y      Z
   1   7    -0.13  -0.05   0.21     0.21   0.06   0.08     0.01   0.16   0.02
   2   6    -0.04  -0.01   0.02    -0.16  -0.08  -0.17    -0.08   0.10  -0.04
   3   6     0.14   0.19  -0.07    -0.01  -0.07   0.11    -0.11   0.04   0.16
   4   6    -0.03  -0.01   0.17     0.03   0.13   0.09     0.10  -0.11  -0.04
   5   1     0.05  -0.13  -0.06    -0.03   0.01  -0.03     0.01   0.02   0.03
   6   6     0.09  -0.10  -0.13     0.03  -0.25  -0.03     0.02  -0.08   0.08
   7   1    -0.01   0.15  -0.02     0.01   0.08   0.00     0.01  -0.07   0.01
   8   6     0.06   0.09  -0.11    -0.12  -0.10   0.02     0.17   0.04  -0.18
   9   1    -0.06  -0.01  -0.02    -0.04  -0.04   0.03    -0.13  -0.04   0.04
  10   1     0.08   0.03  -0.08     0.02   0.02  -0.04     0.04  -0.03  -0.05
  11   1    -0.01  -0.01  -0.01    -0.03  -0.01   0.01    -0.05  -0.01  -0.10
  12   6    -0.04  -0.02  -0.09    -0.13  -0.03  -0.05     0.13  -0.06   0.10
  13   1     0.04   0.00   0.02    -0.06   0.02  -0.06     0.04  -0.04   0.03
  14   6    -0.05  -0.18  -0.15     0.14   0.01  -0.02     0.07  -0.02  -0.08
  15   1     0.02   0.03   0.01    -0.01  -0.11  -0.06    -0.00  -0.04  -0.03
  16   1     0.05  -0.09  -0.08    -0.07   0.09   0.04    -0.03   0.04   0.01
  17   6     0.10   0.11   0.00    -0.08  -0.08  -0.09     0.02  -0.09  -0.11
  18   1    -0.10   0.11   0.07     0.11  -0.10  -0.10     0.05  -0.05  -0.06
  19   6     0.01  -0.01  -0.02    -0.03   0.05   0.01    -0.04   0.09   0.02
  20   1    -0.01  -0.10  -0.08    -0.00   0.10   0.08     0.01   0.02   0.00
  21   1     0.03   0.00  -0.12    -0.03   0.01   0.13    -0.01   0.03   0.02
  22   1    -0.04  -0.01   0.15     0.03   0.02  -0.16     0.01   0.03  -0.08
  23   6    -0.06  -0.05  -0.03     0.06   0.03   0.09    -0.01   0.02   0.13
  24   1     0.04  -0.08   0.16    -0.03   0.08  -0.17     0.01   0.02  -0.10
  25   1     0.06   0.06  -0.02    -0.06  -0.09   0.06    -0.01  -0.14   0.12
  26   1     0.04   0.10  -0.07    -0.04  -0.12   0.08    -0.00  -0.04  -0.03
  27   1    -0.02  -0.01   0.02    -0.08  -0.04   0.06    -0.04  -0.00   0.06
  28   6    -0.11  -0.01   0.03     0.11   0.02  -0.03    -0.14  -0.04   0.03
  29   1     0.07   0.06  -0.02     0.03   0.01   0.02     0.16   0.15  -0.06
  30   1    -0.03   0.08  -0.03     0.03   0.02  -0.02    -0.02   0.20  -0.08
  31   1    -0.03  -0.04   0.02     0.03  -0.08   0.03    -0.05  -0.08   0.05
  32   6     0.00  -0.11   0.09     0.03   0.13  -0.02    -0.05  -0.12   0.16
  33   1     0.05  -0.02  -0.03     0.02  -0.12   0.03     0.09  -0.03  -0.07
  34   1     0.11  -0.14   0.00    -0.14   0.13  -0.06     0.20  -0.24  -0.01
  35   1    -0.03   0.09  -0.05    -0.05  -0.02  -0.01    -0.08   0.22  -0.12
  36   1    -0.04   0.01  -0.04     0.01  -0.02   0.01    -0.05   0.02  -0.03
  37   1    -0.01   0.01   0.02    -0.04  -0.03  -0.06     0.08   0.04   0.13
  38   6     0.03  -0.01   0.06     0.03  -0.03   0.10    -0.03   0.01  -0.09
  39   1     0.01   0.00   0.02    -0.05  -0.05   0.02     0.11   0.10   0.01
  40   6     0.05   0.05   0.03     0.12   0.06   0.01    -0.13  -0.01  -0.03
  41   1    -0.03  -0.04   0.01     0.03   0.00   0.03    -0.06  -0.03  -0.04
  42   1    -0.05  -0.05  -0.00    -0.02   0.03  -0.03     0.03  -0.06   0.05
  43   1    -0.01  -0.01  -0.03    -0.07  -0.05   0.01     0.14   0.11  -0.04
  44   1     0.06   0.07  -0.07     0.06   0.13  -0.08    -0.06  -0.18   0.09
  45   1     0.04  -0.22   0.11     0.05  -0.14   0.05    -0.01   0.05  -0.04
  46   1    -0.04   0.17   0.05    -0.01  -0.01   0.02     0.04  -0.10  -0.01
  47   6     0.01   0.07  -0.01     0.01   0.17  -0.02     0.01   0.07   0.01
  48   1    -0.14   0.09  -0.06     0.00   0.05  -0.00     0.09  -0.03   0.03
  49   6    -0.11   0.06   0.08    -0.15   0.13  -0.02    -0.06   0.04  -0.07
  50   1     0.20  -0.07   0.08     0.13  -0.02   0.05    -0.04   0.05  -0.02
  51   1     0.25   0.02   0.02     0.18  -0.05   0.05    -0.06  -0.04   0.02
  52   1    -0.13  -0.08  -0.12     0.05  -0.08  -0.01     0.10  -0.00   0.06
  53   1    -0.08  -0.06  -0.12    -0.27  -0.13  -0.12    -0.12  -0.04   0.00
                     46                     47                     48
                        a                      a                      a 
 Frequencies --   945.1612               946.2363               950.5401
 Red. masses --     5.3766                 5.5191                 5.5413
 Frc consts  --     0.0000                 0.0000                 0.0000
 IR Inten    --     3.9849                 7.1263                 2.7549
 Raman Activ --     0.0000                 0.0000                 0.0000
 Depolar     --     0.0000                 0.0000                 0.0000
 Atom AN      X      Y      Z        X      Y      Z        X      Y      Z
   1   7    -0.12  -0.00   0.04     0.07  -0.04   0.11    -0.02  -0.02  -0.19
   2   6    -0.00   0.03   0.13    -0.09  -0.07  -0.02     0.15  -0.11   0.08
   3   6     0.03   0.01  -0.11     0.03   0.10   0.06    -0.16  -0.04  -0.04
   4   6    -0.04  -0.09   0.04    -0.05   0.03  -0.07     0.07   0.04  -0.05
   5   1     0.04  -0.08  -0.02     0.01   0.04   0.03    -0.05   0.09   0.03
   6   6     0.01   0.13  -0.05    -0.08   0.17   0.01     0.02  -0.16   0.06
   7   1    -0.00   0.03  -0.01    -0.05  -0.03  -0.00     0.02  -0.08   0.03
   8   6     0.01   0.05   0.06     0.07   0.04  -0.12     0.21   0.12  -0.02
   9   1     0.08   0.02  -0.01    -0.09  -0.01   0.00     0.07   0.05  -0.00
  10   1    -0.04   0.02   0.04     0.06   0.01  -0.07    -0.09  -0.05   0.10
  11   1    -0.00  -0.00  -0.06    -0.01  -0.01   0.00     0.06   0.01   0.13
  12   6    -0.03  -0.04  -0.16    -0.18  -0.04  -0.19    -0.14   0.07  -0.10
  13   1     0.07  -0.03   0.07     0.00   0.00  -0.00    -0.05   0.05  -0.03
  14   6     0.03   0.06  -0.08     0.10  -0.08   0.02    -0.09   0.14   0.10
  15   1    -0.01  -0.02   0.03     0.00  -0.08  -0.06    -0.01   0.07   0.04
  16   1    -0.01   0.03  -0.02    -0.04   0.05   0.00     0.02   0.00   0.02
  17   6     0.08  -0.23  -0.21    -0.11   0.11   0.04     0.05  -0.08   0.02
  18   1     0.08  -0.08  -0.14     0.05  -0.02  -0.03    -0.02   0.00   0.01
  19   6    -0.08   0.19   0.06     0.02  -0.08  -0.03    -0.00   0.02   0.02
  20   1     0.04  -0.01  -0.04    -0.02   0.10   0.11     0.01  -0.05  -0.04
  21   1    -0.01   0.06  -0.01    -0.02  -0.02   0.13     0.01   0.00  -0.06
  22   1     0.02   0.05  -0.14     0.02  -0.02  -0.06    -0.01   0.01   0.01
  23   6    -0.05   0.06   0.26     0.09  -0.02  -0.09    -0.04   0.03   0.02
  24   1     0.04   0.03  -0.21    -0.06   0.05  -0.01     0.02  -0.02  -0.01
  25   1    -0.00  -0.31   0.29    -0.05   0.12  -0.14     0.02  -0.06   0.06
  26   1     0.01  -0.06  -0.12    -0.04  -0.07   0.15     0.02   0.03  -0.07
  27   1     0.06   0.04  -0.06    -0.04  -0.02   0.05     0.11   0.08  -0.09
  28   6    -0.01   0.01   0.01    -0.08  -0.01   0.01    -0.12  -0.02   0.05
  29   1    -0.07  -0.07   0.02     0.10   0.10  -0.04    -0.02   0.01  -0.03
  30   1    -0.01  -0.09   0.04    -0.01   0.13  -0.05    -0.04  -0.01   0.01
  31   1     0.01   0.08  -0.04    -0.03  -0.07   0.04    -0.03   0.14  -0.06
  32   6    -0.00  -0.03  -0.05    -0.01  -0.07   0.10    -0.08  -0.17   0.04
  33   1    -0.05   0.09   0.01     0.06  -0.05  -0.04    -0.03   0.19  -0.06
  34   1     0.01   0.01   0.04     0.10  -0.13  -0.02     0.22  -0.20   0.08
  35   1     0.06  -0.07   0.05    -0.06   0.13  -0.08     0.07   0.07   0.00
  36   1    -0.13  -0.00  -0.10    -0.06  -0.02  -0.05     0.06  -0.02   0.03
[...]
  44   1     0.00  -0.00   0.00    -0.00  -0.00  -0.00     0.00   0.00   0.00
  45   1    -0.01   0.06   0.09     0.01  -0.04  -0.07     0.00  -0.00  -0.00
  46   1     0.04   0.03  -0.06    -0.09  -0.07   0.12     0.02   0.02  -0.02
  47   6    -0.00  -0.01  -0.00     0.01   0.01   0.00    -0.00  -0.00   0.00
  48   1     0.01   0.01  -0.01    -0.02  -0.02   0.04     0.00   0.00  -0.00
  49   6    -0.00   0.00  -0.00    -0.00  -0.01  -0.00     0.00   0.00  -0.00
  50   1    -0.00   0.01   0.02     0.00  -0.03  -0.04    -0.00   0.00   0.00
  51   1     0.00  -0.00  -0.01    -0.00   0.02   0.03     0.00  -0.01  -0.01
  52   1    -0.00  -0.00   0.01     0.02   0.01  -0.02    -0.01  -0.00   0.01
  53   1     0.00  -0.01   0.00    -0.01   0.01  -0.00     0.00  -0.00   0.00
                    142                    143                    144
                        a                      a                      a 
 Frequencies --  3042.2397              3042.6036              3043.1392
 Red. masses --     1.8720                 1.9518                 1.9564
 Frc consts  --     0.0000                 0.0000                 0.0000
 IR Inten    --    27.9970                45.3355                40.1118
 Raman Activ --     0.0000                 0.0000                 0.0000
 Depolar     --     0.0000                 0.0000                 0.0000
 Atom AN      X      Y      Z        X      Y      Z        X      Y      Z
   1   7    -0.00   0.00   0.00    -0.00  -0.00  -0.00     0.00  -0.00   0.00
   2   6    -0.00   0.00   0.00    -0.00   0.00   0.00     0.00  -0.00  -0.00
   3   6    -0.00   0.00   0.00    -0.00  -0.00  -0.00     0.00   0.00   0.00
   4   6     0.00   0.00   0.00    -0.00  -0.00  -0.00    -0.00  -0.00   0.00
   5   1    -0.01  -0.01   0.01     0.00   0.00  -0.00     0.01   0.01  -0.01
   6   6    -0.00   0.01   0.01    -0.00  -0.00  -0.00    -0.00  -0.00  -0.00
   7   1     0.00  -0.01  -0.01    -0.00   0.00   0.00    -0.00   0.00   0.01
   8   6    -0.00   0.00   0.00    -0.00  -0.00  -0.00     0.00   0.00   0.00
   9   1     0.00  -0.00  -0.00    -0.00   0.00   0.00    -0.00   0.00   0.00
  10   1     0.00   0.00   0.00     0.00   0.00   0.00    -0.00  -0.00  -0.00
  11   1     0.00  -0.00   0.00     0.00  -0.00   0.00    -0.01   0.01  -0.00
  12   6    -0.00  -0.00   0.00     0.00  -0.00  -0.00     0.01  -0.01  -0.01
  13   1     0.00  -0.00  -0.00     0.00  -0.00  -0.00    -0.00   0.00   0.00
  14   6     0.00   0.00   0.00    -0.00  -0.00  -0.00     0.00   0.00   0.00
  15   1     0.00  -0.00  -0.00     0.00  -0.00   0.00    -0.00   0.00  -0.00
  16   1    -0.00  -0.00  -0.00     0.01   0.01   0.00    -0.00  -0.00  -0.00
  17   6    -0.01  -0.00  -0.00    -0.02  -0.02  -0.01     0.00   0.00   0.00
  18   1     0.01   0.01   0.00     0.06   0.08   0.02    -0.01  -0.01  -0.00
  19   6    -0.01  -0.00  -0.00    -0.04  -0.02  -0.01     0.00   0.00   0.00
  20   1     0.01  -0.00   0.00     0.01  -0.01   0.00    -0.00   0.00  -0.00
  21   1     0.01  -0.00   0.00     0.07  -0.02   0.01    -0.01   0.00  -0.00
  22   1     0.01   0.02   0.00     0.06   0.08   0.02    -0.01  -0.01  -0.00
  23   6    -0.05  -0.02  -0.01    -0.25  -0.11  -0.06     0.02   0.02   0.01
  24   1     0.09   0.12   0.02     0.43   0.59   0.11    -0.05  -0.07  -0.01
  25   1    -0.01  -0.00  -0.00    -0.04  -0.01  -0.00     0.01  -0.00  -0.00
  26   1     0.11  -0.04   0.03     0.49  -0.20   0.11    -0.04   0.02  -0.01
  27   1    -0.00  -0.00  -0.00     0.00   0.00   0.00    -0.00  -0.00  -0.00
  28   6     0.00  -0.00  -0.00     0.00   0.00   0.00    -0.00   0.00   0.00
  29   1     0.00  -0.00  -0.00     0.00  -0.00  -0.00     0.00  -0.00  -0.00
  30   1    -0.00   0.00   0.00     0.00  -0.00  -0.00     0.00  -0.00  -0.01
  31   1     0.00   0.00   0.00    -0.00  -0.00  -0.00    -0.00  -0.00  -0.00
  32   6     0.00  -0.00  -0.01     0.00   0.00   0.01    -0.01   0.01   0.01
  33   1     0.01   0.00   0.01    -0.02  -0.01  -0.02    -0.01  -0.00  -0.00
  34   1    -0.00  -0.00  -0.00    -0.00   0.00   0.00     0.00   0.00  -0.00
  35   1    -0.01   0.01   0.03     0.01  -0.01  -0.02     0.02  -0.02  -0.05
  36   1     0.00  -0.00  -0.00    -0.00   0.00   0.00    -0.01   0.01   0.03
  37   1    -0.00   0.00  -0.00    -0.00   0.00  -0.00    -0.03   0.04  -0.01
  38   6     0.00  -0.00  -0.00     0.00  -0.00  -0.00     0.03  -0.03  -0.01
  39   1    -0.00   0.00  -0.00    -0.00   0.01  -0.00    -0.06   0.08  -0.02
  40   6     0.01  -0.01  -0.01     0.02  -0.02  -0.01     0.18  -0.21  -0.09
  41   1    -0.00   0.00   0.00    -0.00   0.00   0.01    -0.03   0.02   0.06
  42   1    -0.02   0.02   0.05    -0.03   0.02   0.05    -0.22   0.16   0.48
  43   1    -0.03   0.04  -0.01    -0.03   0.05  -0.01    -0.42   0.60  -0.16
  44   1     0.00  -0.00  -0.00     0.00  -0.00  -0.00     0.01  -0.03  -0.02
  45   1     0.00  -0.03  -0.05    -0.00   0.01   0.01    -0.00   0.00   0.00
  46   1    -0.00   0.00   0.00     0.00   0.00  -0.00     0.00   0.00  -0.00
  47   6    -0.01   0.02   0.04     0.00  -0.00  -0.01     0.00  -0.00  -0.00
  48   1     0.02   0.02  -0.02    -0.00  -0.00   0.01    -0.00  -0.00   0.00
  49   6    -0.05   0.12   0.24     0.01  -0.02  -0.05     0.00  -0.00  -0.01
  50   1     0.01  -0.07  -0.10    -0.00   0.02   0.02    -0.00   0.00   0.01
  51   1     0.02  -0.54  -0.71    -0.00   0.12   0.15    -0.00   0.03   0.03
  52   1     0.13   0.14  -0.16    -0.03  -0.03   0.04    -0.01  -0.01   0.01
  53   1     0.01  -0.02   0.04    -0.00   0.00  -0.01    -0.00   0.00  -0.00
                    145                    146                    147
                        a                      a                      a 
 Frequencies --  3043.7321              3045.4256              3045.6429
 Red. masses --     1.9140                 1.5801                 1.5693
 Frc consts  --     0.0000                 0.0000                 0.0000
 IR Inten    --    44.9257                27.0126                38.6613
 Raman Activ --     0.0000                 0.0000                 0.0000
 Depolar     --     0.0000                 0.0000                 0.0000
 Atom AN      X      Y      Z        X      Y      Z        X      Y      Z
   1   7    -0.00   0.00   0.00    -0.00   0.00   0.00     0.00  -0.00   0.00
   2   6    -0.00   0.00   0.00    -0.00   0.00   0.00     0.00  -0.00   0.00
   3   6    -0.00   0.00   0.00    -0.00   0.00   0.00     0.00   0.00   0.00
   4   6    -0.00   0.00   0.00     0.00   0.00  -0.00    -0.00  -0.00   0.00
   5   1     0.00   0.00  -0.00    -0.00  -0.00   0.00     0.00   0.00  -0.00
   6   6    -0.00   0.00   0.00     0.00  -0.00  -0.00    -0.00   0.00   0.00
   7   1     0.00  -0.00  -0.00    -0.00   0.00   0.00     0.00  -0.00  -0.00
   8   6    -0.00   0.01   0.01    -0.00   0.00   0.00    -0.00   0.00   0.00
   9   1     0.00  -0.01  -0.01     0.00  -0.00  -0.00     0.00  -0.00  -0.00
  10   1    -0.00   0.00   0.00    -0.00  -0.00  -0.00    -0.00  -0.00  -0.00
  11   1    -0.00   0.00   0.00     0.00  -0.00   0.00    -0.01   0.01  -0.00
  12   6    -0.00   0.00   0.00    -0.00  -0.00   0.00    -0.00  -0.00   0.02
  13   1     0.00  -0.00  -0.00     0.00  -0.00  -0.00     0.00  -0.00  -0.01
  14   6    -0.00   0.00   0.00    -0.00   0.00   0.00    -0.00  -0.00  -0.00
  15   1     0.00  -0.00   0.00     0.01  -0.01   0.00    -0.00   0.00  -0.00
  16   1    -0.00  -0.00  -0.00    -0.01  -0.01  -0.00     0.00   0.00   0.00
  17   6     0.00   0.00   0.00    -0.00   0.03  -0.00     0.00  -0.01   0.00
  18   1    -0.00  -0.00  -0.00    -0.08  -0.09  -0.02     0.02   0.02   0.00
  19   6     0.00   0.00   0.00    -0.01   0.03  -0.00     0.00  -0.01   0.00
  20   1    -0.00   0.00  -0.00     0.08  -0.02   0.02    -0.02   0.01  -0.00
  21   1    -0.00   0.00  -0.00     0.07  -0.02   0.01    -0.02   0.00  -0.00
  22   1    -0.00  -0.00  -0.00    -0.04  -0.04  -0.01     0.01   0.01   0.00
  23   6     0.01  -0.00   0.00    -0.11   0.19   0.00     0.02  -0.05  -0.00
  24   1    -0.00  -0.00  -0.00    -0.34  -0.40  -0.08     0.09   0.11   0.02
  25   1    -0.00   0.00   0.00     0.03  -0.04  -0.09    -0.01   0.01   0.02
  26   1    -0.03   0.01  -0.01     0.69  -0.22   0.17    -0.17   0.05  -0.04
  27   1    -0.01  -0.00  -0.00    -0.00  -0.00  -0.00    -0.00  -0.00  -0.00
  28   6    -0.00   0.02   0.04    -0.00   0.00   0.00     0.00   0.00   0.00
  29   1     0.02  -0.02  -0.05     0.00  -0.00  -0.00     0.00  -0.00  -0.00
  30   1     0.05  -0.04  -0.10     0.00  -0.00  -0.00     0.00  -0.00  -0.00
  31   1    -0.04  -0.01  -0.03    -0.00  -0.00  -0.00    -0.00  -0.00  -0.00
  32   6    -0.02   0.11   0.26    -0.00   0.00   0.01    -0.00   0.00   0.01
  33   1    -0.30  -0.09  -0.23    -0.01  -0.00  -0.00    -0.01  -0.00  -0.01
  34   1     0.02   0.04   0.02    -0.00  -0.00   0.00     0.00   0.00  -0.00
  35   1     0.36  -0.34  -0.70     0.01  -0.01  -0.02     0.01  -0.01  -0.02
  36   1     0.00  -0.00  -0.00     0.01  -0.00  -0.01     0.03  -0.02  -0.06
  37   1     0.00  -0.00   0.00    -0.00   0.01  -0.00    -0.03   0.04  -0.01
  38   6    -0.00   0.00   0.00    -0.00  -0.00   0.01     0.00  -0.01   0.03
  39   1     0.00  -0.01   0.00    -0.01   0.01  -0.00    -0.03   0.04  -0.01
  40   6    -0.01   0.01  -0.00     0.00  -0.01   0.06     0.02  -0.05   0.21
  41   1     0.00  -0.00  -0.00     0.01  -0.01  -0.02     0.03  -0.03  -0.06
  42   1     0.00  -0.00  -0.01     0.09  -0.07  -0.17     0.33  -0.24  -0.62
  43   1     0.03  -0.05   0.01    -0.07   0.10  -0.02    -0.32   0.45  -0.08
  44   1     0.00   0.00   0.00    -0.02  -0.01  -0.01    -0.07  -0.03  -0.04
  45   1     0.00  -0.00  -0.00    -0.00   0.00   0.00     0.00  -0.00  -0.00
  46   1     0.00   0.00   0.00    -0.00  -0.00   0.00     0.00   0.00  -0.00
  47   6    -0.00   0.00   0.00    -0.00  -0.00   0.00     0.00   0.00   0.00
  48   1     0.00   0.00  -0.00     0.00   0.00  -0.00    -0.00  -0.00   0.00
  49   6    -0.00   0.01   0.01    -0.01  -0.01   0.01     0.00   0.01  -0.00
  50   1     0.00  -0.00  -0.01    -0.00   0.00   0.00     0.00  -0.00  -0.00
  51   1     0.00  -0.02  -0.03    -0.00   0.01   0.02     0.00  -0.01  -0.02
  52   1     0.01   0.01  -0.01     0.03   0.02  -0.04    -0.01  -0.01   0.02
  53   1     0.00  -0.00   0.00    -0.00   0.00  -0.00     0.00  -0.00   0.00
                    148                    149                    150
                        a                      a                      a 
 Frequencies --  3046.8192              3046.9004              3061.7026
 Red. masses --     1.6451                 1.6312                 1.6354
 Frc consts  --     0.0000                 0.0000                 0.0000
 IR Inten    --    20.4942                45.4062                16.8644
 Raman Activ --     0.0000                 0.0000                 0.0000
 Depolar     --     0.0000                 0.0000                 0.0000
 Atom AN      X      Y      Z        X      Y      Z        X      Y      Z
   1   7    -0.00   0.00  -0.00     0.00   0.00  -0.00     0.00   0.00   0.00
   2   6    -0.00   0.00  -0.00     0.00  -0.00   0.00     0.00  -0.00   0.00
   3   6    -0.00  -0.00  -0.00     0.00   0.00   0.00    -0.00  -0.00   0.00
   4   6     0.00   0.00  -0.00     0.00   0.00  -0.00    -0.00  -0.00   0.00
   5   1    -0.01  -0.01   0.01    -0.01  -0.01   0.01     0.00   0.00  -0.00
   6   6     0.01   0.01  -0.00     0.00   0.01  -0.00    -0.00   0.00   0.00
   7   1     0.00  -0.00  -0.00     0.00  -0.00  -0.00     0.00  -0.00  -0.00
   8   6    -0.01   0.00  -0.00     0.01  -0.00   0.00     0.00  -0.00  -0.00
   9   1     0.00  -0.00  -0.00    -0.00   0.00   0.01     0.00  -0.00  -0.00
  10   1     0.00   0.00   0.00    -0.01  -0.00  -0.01     0.00   0.00   0.00
  11   1     0.00  -0.00   0.00    -0.00   0.00  -0.00    -0.00   0.00  -0.00
  12   6    -0.00   0.00  -0.00     0.00  -0.00  -0.00    -0.00  -0.00   0.00
  13   1    -0.00   0.00   0.00    -0.00  -0.00  -0.00     0.00  -0.00  -0.00
  14   6    -0.00   0.00   0.00     0.00   0.00   0.00     0.00  -0.00  -0.00
  15   1     0.00  -0.00   0.00    -0.00   0.00  -0.00    -0.00   0.00  -0.00
  16   1    -0.00  -0.00  -0.00    -0.00  -0.00  -0.00     0.00   0.00   0.00
  17   6    -0.00   0.00  -0.00     0.00   0.00   0.00     0.00  -0.01   0.00
  18   1    -0.01  -0.01  -0.00    -0.01  -0.01  -0.00     0.02   0.02   0.01
  19   6    -0.00   0.00  -0.00     0.00   0.00   0.00     0.00  -0.01  -0.01
  20   1     0.01  -0.00   0.00     0.00  -0.00   0.00    -0.02   0.01  -0.00
  21   1     0.01  -0.00   0.00     0.00  -0.00   0.00    -0.02   0.01  -0.00
  22   1    -0.00  -0.00  -0.00    -0.00  -0.00  -0.00     0.02   0.02   0.00
  23   6    -0.01   0.01  -0.00    -0.00   0.01   0.00     0.08  -0.11  -0.20
  24   1    -0.02  -0.02  -0.00    -0.02  -0.03  -0.01    -0.04  -0.09  -0.04
  25   1    -0.00   0.00  -0.00     0.00  -0.00  -0.00    -0.33   0.50   0.74
  26   1     0.03  -0.01   0.01     0.02  -0.01   0.01     0.10  -0.05  -0.00
  27   1     0.03   0.01   0.02    -0.04  -0.01  -0.03    -0.00  -0.00  -0.00
  28   6    -0.02  -0.00  -0.01     0.02   0.00   0.01     0.00   0.00  -0.00
  29   1     0.01  -0.01  -0.02    -0.01   0.01   0.03    -0.00   0.00   0.00
  30   1     0.01  -0.01  -0.02    -0.01   0.01   0.03    -0.00   0.00   0.00
  31   1     0.04   0.02   0.04    -0.05  -0.02  -0.05    -0.00  -0.00  -0.00
  32   6    -0.14  -0.02  -0.03     0.18   0.03   0.04     0.00   0.00  -0.00
  33   1     0.39   0.13   0.36    -0.49  -0.17  -0.45     0.00   0.00   0.00
  34   1     0.02   0.04  -0.03    -0.03  -0.05   0.04    -0.01  -0.02   0.01
  35   1     0.08  -0.10  -0.21    -0.10   0.13   0.26     0.00   0.00  -0.00
  36   1    -0.00   0.00  -0.00    -0.00   0.00   0.00     0.00  -0.00  -0.00
  37   1     0.00  -0.00   0.00    -0.00   0.00  -0.00    -0.00   0.00  -0.00
  38   6    -0.00   0.00  -0.00     0.00  -0.00  -0.00    -0.00  -0.00  -0.00
  39   1     0.00  -0.00   0.00    -0.00   0.00  -0.00    -0.00   0.00  -0.00
  40   6    -0.00   0.00  -0.00     0.00  -0.00  -0.00    -0.01  -0.00  -0.00
  41   1    -0.00   0.00   0.00    -0.00   0.00   0.00     0.00  -0.00  -0.00
  42   1    -0.00   0.00   0.00    -0.00   0.00   0.01     0.00  -0.00  -0.00
  43   1     0.01  -0.02   0.00     0.00  -0.00  -0.00    -0.00   0.00  -0.00
  44   1    -0.00   0.00  -0.00    -0.00  -0.00  -0.00     0.02   0.01   0.02
  45   1     0.00  -0.01  -0.02     0.00  -0.01  -0.02    -0.00  -0.00  -0.00
  46   1    -0.02  -0.02   0.03    -0.02  -0.02   0.03     0.00   0.00  -0.00
  47   6     0.01   0.01  -0.01     0.01   0.01  -0.01    -0.00  -0.00   0.00
  48   1    -0.03  -0.03   0.05    -0.03  -0.02   0.04     0.00   0.00  -0.00
  49   6     0.09   0.13  -0.10     0.07   0.11  -0.08     0.00  -0.00   0.00
  50   1     0.00  -0.01  -0.01     0.00  -0.01  -0.01    -0.00  -0.00  -0.00
  51   1     0.01  -0.11  -0.18     0.01  -0.08  -0.15     0.00  -0.00  -0.00
  52   1    -0.37  -0.31   0.53    -0.29  -0.25   0.42     0.00   0.00  -0.00
  53   1     0.05  -0.06   0.01     0.04  -0.04   0.00    -0.01   0.02  -0.00
                    151                    152                    153
                        a                      a                      a 
 Frequencies --  3063.2891              3063.7349              3063.8672
 Red. masses --     1.6430                 1.6465                 1.6433
 Frc consts  --     0.0000                 0.0000                 0.0000
 IR Inten    --    18.9426                22.9582                 7.5823
 Raman Activ --     0.0000                 0.0000                 0.0000
 Depolar     --     0.0000                 0.0000                 0.0000
 Atom AN      X      Y      Z        X      Y      Z        X      Y      Z
   1   7     0.00   0.00   0.00    -0.00   0.00  -0.00     0.00   0.00  -0.00
   2   6    -0.00   0.00  -0.00     0.00  -0.00   0.00     0.00  -0.00   0.00
   3   6    -0.00   0.00   0.00     0.00   0.00   0.00    -0.00  -0.00   0.00
   4   6    -0.00  -0.00   0.00    -0.00  -0.00   0.00    -0.00  -0.00   0.00
   5   1     0.00   0.00  -0.00     0.00   0.00  -0.00     0.00   0.00  -0.00
   6   6    -0.00  -0.00  -0.00    -0.00  -0.00   0.00     0.00   0.00   0.00
   7   1    -0.00   0.00   0.00    -0.00   0.00   0.00    -0.00   0.00  -0.00
   8   6    -0.00   0.00  -0.00     0.00  -0.00  -0.00    -0.00   0.00   0.00
   9   1     0.00  -0.00  -0.00     0.00   0.00   0.00     0.00  -0.00  -0.00
  10   1     0.00   0.00   0.00    -0.00  -0.00  -0.00     0.00   0.00   0.00
  11   1     0.00  -0.00   0.00    -0.00   0.00   0.00    -0.00   0.00   0.00
  12   6    -0.00  -0.00   0.00     0.00  -0.00   0.00    -0.00  -0.00   0.00
  13   1    -0.00   0.00   0.00     0.00  -0.00  -0.00     0.00  -0.00  -0.00
  14   6    -0.00  -0.00  -0.00     0.00  -0.00  -0.00    -0.00   0.00  -0.00
  15   1     0.00  -0.00   0.00    -0.00   0.00  -0.00     0.00  -0.00   0.00
  16   1     0.00   0.00   0.00     0.00   0.00   0.00     0.00   0.00  -0.00
  17   6    -0.00   0.00  -0.00     0.00  -0.00   0.00    -0.00  -0.00   0.00
  18   1     0.00   0.00   0.00     0.00   0.00   0.00     0.00   0.00   0.00
  19   6    -0.00   0.00   0.00    -0.00  -0.00  -0.00    -0.00  -0.00  -0.00
  20   1     0.00  -0.00   0.00    -0.00   0.00  -0.00    -0.00   0.00  -0.00
  21   1     0.00  -0.00   0.00    -0.00   0.00  -0.00    -0.00   0.00  -0.00
  22   1     0.00   0.00   0.00     0.00   0.00   0.00     0.00   0.00   0.00
  23   6    -0.00   0.00   0.00     0.00  -0.00   0.00     0.00  -0.00  -0.01
  24   1     0.00   0.00   0.00     0.00   0.00   0.00    -0.00  -0.00  -0.00
  25   1     0.00  -0.01  -0.01     0.00  -0.00  -0.00    -0.02   0.02   0.03
  26   1    -0.00   0.00   0.00    -0.00   0.00  -0.00     0.01  -0.00   0.00
  27   1     0.00   0.00   0.00    -0.01  -0.00  -0.01     0.01   0.00   0.01
  28   6    -0.00  -0.00   0.00     0.01   0.00  -0.00    -0.01  -0.00   0.00
  29   1     0.00  -0.00  -0.00    -0.01   0.01   0.01     0.00  -0.00  -0.01
  30   1     0.00  -0.00  -0.00    -0.01   0.01   0.02     0.01  -0.01  -0.01
  31   1     0.00   0.00   0.00    -0.01  -0.01  -0.01     0.01   0.00   0.01
  32   6    -0.01  -0.02   0.01     0.10   0.14  -0.09    -0.07  -0.10   0.06
  33   1    -0.01  -0.00  -0.00     0.07   0.04   0.04    -0.05  -0.02  -0.02
  34   1     0.06   0.06  -0.04    -0.48  -0.54   0.34     0.32   0.36  -0.23
  35   1    -0.00   0.00   0.01     0.04  -0.01  -0.06    -0.03   0.01   0.04
  36   1     0.00  -0.00  -0.00     0.00  -0.00  -0.01     0.01  -0.01  -0.01
  37   1    -0.00   0.00  -0.00    -0.01   0.01  -0.00    -0.01   0.01  -0.00
  38   6     0.00  -0.00   0.00     0.00  -0.00   0.01     0.00  -0.00   0.01
  39   1    -0.00   0.00  -0.00    -0.01   0.01  -0.00    -0.01   0.02  -0.00
  40   6     0.02   0.01   0.01     0.10   0.04   0.08     0.15   0.06   0.12
  41   1     0.00  -0.00  -0.00     0.01  -0.00  -0.01     0.01  -0.01  -0.02
  42   1    -0.00   0.00   0.01    -0.01   0.02   0.05    -0.01   0.03   0.08
  43   1     0.01  -0.00   0.00     0.04  -0.03   0.02     0.06  -0.05   0.03
  44   1    -0.06  -0.02  -0.06    -0.38  -0.14  -0.35    -0.56  -0.20  -0.51
  45   1    -0.00   0.01   0.01    -0.00   0.00   0.00     0.00  -0.00  -0.00
  46   1     0.01   0.01  -0.01     0.00   0.00  -0.00    -0.00  -0.00   0.00
  47   6     0.00  -0.01   0.00    -0.00  -0.00   0.00    -0.00   0.00   0.00
  48   1     0.01   0.01  -0.02     0.00   0.00  -0.00    -0.00  -0.00   0.00
  49   6     0.13  -0.19   0.06     0.00  -0.01   0.00    -0.02   0.02  -0.01
  50   1    -0.00   0.02   0.02    -0.00   0.00   0.00     0.00  -0.00  -0.00
  51   1     0.02  -0.07  -0.05     0.00  -0.00  -0.00    -0.00   0.01   0.01
  52   1    -0.03  -0.07   0.08    -0.00  -0.00   0.00     0.01   0.01  -0.01
  53   1    -0.43   0.81  -0.23    -0.01   0.02  -0.01     0.06  -0.10   0.03
