 Entering Gaussian System
 *********************************************
 Gaussian 98:
 frequency output generated by the xtb code
 *********************************************
                         Standard orientation:
 --------------------------------------------------------------------
  Center     Atomic     Atomic              Coordinates (Angstroms)
  Number     Number      Type              X           Y           Z
 --------------------------------------------------------------------
    1          6             0       -3.582114    2.047329   -0.025410
    2          6             0       -3.656347    0.518444    0.012834
    3          1             0       -3.624933    2.431943    0.996414
    4          1             0       -2.243709    2.222902   -1.715113
    5          6             0       -2.305222    2.554479   -0.678115
    6          6             0       -4.051494   -0.054661   -1.358307
    7          6             0       -0.517724   -0.071694   -1.145129
    8          7             0       -2.386718   -0.079092    0.421017
    9          6             0       -1.122987    2.034043    0.125164
   10          6             0       -1.071187    0.503994    0.169763
   11          1             0       -0.182077    2.396401   -0.293648
   12          1             0       -1.201612    2.418003    1.145770
   13          1             0       -2.299713    3.646166   -0.681566
   14          6             0       -0.158622    0.061185    1.321060
   15          6             0       -4.706573    0.087474    1.044736
   16          1             0       -4.459272    2.420217   -0.556539
   17          8             0       -2.410851   -1.330290    0.696376
   18          1             0        0.840953    0.463436    1.181979
   19          1             0       -0.552978    0.413902    2.271464
   20          1             0       -0.110510   -1.023330    1.353460
   21          1             0        0.538620    0.165775   -1.240966
   22          1             0       -0.636354   -1.152450   -1.136161
   23          1             0       -1.043056    0.329565   -2.007138
   24          1             0       -4.437755    0.454744    2.032690
   25          1             0       -5.681621    0.482887    0.773845
   26          1             0       -4.755288   -0.996767    1.085805
   27          1             0       -3.396386    0.308114   -2.145411
   28          1             0       -3.982585   -1.139205   -1.321218
   29          1             0       -5.073616    0.225298   -1.599672
 --------------------------------------------------------------------
     1 basis functions        1 primitive gaussians
     1 alpha electrons        1 beta electrons
 
 Harmonic frequencies (cm**-1), IR intensities (km*mol⁻¹),
 Raman scattering activities (A**4/amu), Raman depolarization ratios,
 reduced masses (AMU), force constants (mDyne/A) and normal coordinates:
                      1                      2                      3
                        a                      a                      a 
 Frequencies --    59.4399               105.2342               167.8043
 Red. masses --    11.7102                 7.9973                 1.3366
 Frc consts  --     0.0000                 0.0000                 0.0000
 IR Inten    --     5.1853                 0.0304                 0.0375
 Raman Activ --     0.0000                 0.0000                 0.0000
 Depolar     --     0.0000                 0.0000                 0.0000
 Atom AN      X      Y      Z        X      Y      Z        X      Y      Z
   1   6     0.01   0.02  -0.04    -0.04  -0.01  -0.37     0.00  -0.01  -0.01
   2   6    -0.03   0.02   0.05     0.01  -0.01  -0.05     0.02  -0.01  -0.05
   3   1     0.02   0.03  -0.02    -0.13   0.06  -0.13    -0.01  -0.01  -0.00
   4   1     0.00  -0.06  -0.02     0.13   0.00   0.01     0.01   0.00   0.00
   5   6     0.01  -0.07  -0.12     0.15   0.00   0.01     0.01   0.00   0.00
   6   6    -0.27  -0.01   0.13    -0.07  -0.30   0.10    -0.05   0.06  -0.06
   7   6     0.25  -0.01   0.17    -0.05   0.30  -0.10    -0.01  -0.04   0.04
   8   7     0.01  -0.05  -0.19     0.00   0.00  -0.00     0.00  -0.01  -0.03
   9   6    -0.01   0.02  -0.04    -0.08   0.01   0.35     0.01   0.00   0.01
  10   6     0.02   0.02   0.05     0.00   0.01   0.05     0.01   0.00   0.03
  11   1     0.00   0.00  -0.01     0.01   0.05   0.22     0.00   0.00   0.01
  12   1    -0.01   0.03  -0.02    -0.14  -0.06   0.12    -0.00   0.00   0.00
  13   1     0.00  -0.02  -0.08     0.03   0.00   0.00     0.00   0.00   0.00
  14   6    -0.18   0.10   0.24     0.07  -0.23  -0.11     0.01   0.03   0.04
  15   6     0.15   0.09   0.26     0.07   0.22   0.12     0.04  -0.04  -0.03
  16   1     0.00   0.00  -0.01     0.04  -0.05  -0.22     0.00  -0.00  -0.01
  17   8     0.03  -0.14  -0.59    -0.04   0.00  -0.00    -0.03   0.01   0.05
  18   1    -0.04   0.01   0.11     0.02  -0.06  -0.03     0.06  -0.17  -0.10
  19   1    -0.09   0.06   0.04     0.04  -0.11  -0.00     0.12   0.19  -0.01
  20   1    -0.07   0.03   0.10     0.01  -0.07  -0.09    -0.16   0.00   0.14
  21   1     0.07   0.03   0.08    -0.03   0.14  -0.05    -0.07   0.23  -0.14
  22   1     0.11  -0.01   0.07     0.04   0.08  -0.07     0.25  -0.04   0.14
  23   1     0.08  -0.04   0.02    -0.06   0.09   0.00    -0.20  -0.24   0.03
  24   1     0.09   0.05   0.05     0.05   0.11   0.01     0.18  -0.26   0.04
  25   1     0.03   0.01   0.11     0.02   0.07   0.04     0.07   0.24   0.16
  26   1     0.06   0.03   0.10    -0.00   0.07   0.09    -0.20  -0.01  -0.21
  27   1    -0.09  -0.04   0.01    -0.06  -0.09  -0.01    -0.22   0.26  -0.07
  28   1    -0.11  -0.00   0.05     0.04  -0.08   0.08     0.27   0.03  -0.12
  29   1    -0.08   0.03   0.07    -0.04  -0.15   0.05    -0.12  -0.23   0.14
                      4                      5                      6
                        a                      a                      a 
 Frequencies --   175.0955               196.9194               215.8660
 Red. masses --     7.0285                 4.1384                 1.3959
 Frc consts  --     0.0000                 0.0000                 0.0000
 IR Inten    --     1.9511                 1.1642                 0.1558
 Raman Activ --     0.0000                 0.0000                 0.0000
 Depolar     --     0.0000                 0.0000                 0.0000
 Atom AN      X      Y      Z        X      Y      Z        X      Y      Z
   1   6     0.00  -0.03  -0.00    -0.02   0.02  -0.03     0.02   0.04  -0.00
   2   6    -0.02  -0.04  -0.08     0.02   0.02   0.04    -0.01   0.04   0.00
   3   1     0.01  -0.03   0.01    -0.03   0.02  -0.01     0.01   0.02  -0.00
   4   1    -0.00  -0.01  -0.00    -0.00   0.03  -0.00     0.02   0.00   0.00
   5   6    -0.00  -0.03  -0.01    -0.01   0.04   0.01     0.04   0.00   0.01
   6   6    -0.24   0.09  -0.07     0.19  -0.12   0.06    -0.03   0.09  -0.02
   7   6     0.26   0.10  -0.05    -0.19  -0.12   0.03    -0.05  -0.11   0.02
   8   7     0.01  -0.06  -0.26    -0.01   0.06   0.17    -0.01   0.00   0.01
   9   6    -0.00  -0.03  -0.01     0.02   0.02  -0.03     0.02  -0.04   0.00
  10   6     0.02  -0.04  -0.09    -0.02   0.02   0.03    -0.01  -0.04   0.00
  11   1    -0.00   0.00   0.00     0.00  -0.01  -0.03     0.01  -0.01   0.00
  12   1    -0.01  -0.03   0.00     0.03   0.02  -0.01     0.01  -0.02   0.00
  13   1    -0.00  -0.01  -0.00    -0.00   0.01   0.01     0.02   0.00   0.00
  14   6    -0.12  -0.05   0.03     0.02   0.08   0.02     0.02   0.02   0.00
  15   6     0.11  -0.04   0.05    -0.03   0.08   0.02     0.00  -0.02  -0.01
  16   1    -0.00   0.00   0.01     0.00  -0.01  -0.03     0.01   0.01  -0.00
  17   8    -0.02   0.10   0.43     0.02  -0.05  -0.29     0.00  -0.00  -0.02
  18   1    -0.11   0.23   0.19    -0.06   0.21   0.11    -0.09   0.28   0.15
  19   1    -0.23  -0.26   0.02    -0.11  -0.15   0.02    -0.17  -0.25   0.03
  20   1     0.20  -0.01  -0.16     0.19   0.03  -0.11     0.28   0.02  -0.17
  21   1     0.09   0.01   0.07     0.01  -0.30   0.10    -0.07   0.17  -0.12
  22   1     0.06   0.03  -0.07    -0.33  -0.01  -0.07     0.20  -0.05   0.13
  23   1     0.14   0.07  -0.03     0.11   0.16  -0.00    -0.18  -0.23   0.02
  24   1     0.18  -0.19   0.04     0.10  -0.16   0.04    -0.16   0.23  -0.05
  25   1     0.06   0.18   0.16     0.04   0.22   0.11    -0.06  -0.27  -0.15
  26   1    -0.13  -0.01  -0.13    -0.18   0.02  -0.14     0.23  -0.01   0.19
  27   1    -0.08   0.01  -0.03    -0.07   0.14  -0.01    -0.16   0.23  -0.04
  28   1    -0.12   0.02  -0.05     0.30  -0.02  -0.02     0.22   0.04  -0.09
  29   1    -0.07   0.07   0.02    -0.02  -0.27   0.08    -0.09  -0.17   0.11
                      7                      8                      9
                        a                      a                      a 
 Frequencies --   236.6089               276.4864               278.3353
 Red. masses --     3.5861                 7.6723                 7.5868
 Frc consts  --     0.0000                 0.0000                 0.0000
 IR Inten    --     1.0363                 0.0326                 0.0110
 Raman Activ --     0.0000                 0.0000                 0.0000
 Depolar     --     0.0000                 0.0000                 0.0000
 Atom AN      X      Y      Z        X      Y      Z        X      Y      Z
   1   6    -0.03   0.01  -0.04    -0.05  -0.00  -0.24    -0.07   0.01  -0.03
   2   6    -0.02   0.01  -0.04     0.02  -0.02  -0.11     0.02  -0.01  -0.11
   3   1    -0.02   0.01  -0.01    -0.11   0.04  -0.09    -0.11  -0.04   0.00
   4   1     0.00   0.01  -0.00     0.09   0.04   0.01    -0.01   0.31   0.04
   5   6     0.00   0.01   0.01     0.09   0.05   0.05    -0.03   0.40   0.35
   6   6    -0.08   0.05  -0.04    -0.24   0.22  -0.14     0.06  -0.30  -0.00
   7   6     0.08   0.03  -0.04    -0.26  -0.28   0.11    -0.01  -0.23  -0.04
   8   7     0.01   0.06  -0.13     0.01   0.00  -0.02     0.01   0.03  -0.15
   9   6     0.04   0.01  -0.03    -0.06   0.00   0.22     0.11   0.01  -0.09
  10   6     0.02   0.01  -0.04     0.01   0.01   0.08    -0.01  -0.01  -0.13
  11   1     0.01   0.00  -0.02     0.00   0.03   0.14     0.01  -0.02  -0.10
  12   1     0.02   0.01  -0.01    -0.09  -0.05   0.07     0.14  -0.02  -0.01
  13   1     0.00   0.00   0.01     0.02   0.02   0.04    -0.02   0.12   0.31
  14   6    -0.17  -0.14   0.06     0.19   0.20   0.01    -0.21   0.01   0.04
  15   6     0.16  -0.15   0.08     0.23  -0.19   0.02     0.14   0.05   0.05
  16   1    -0.00   0.00  -0.03     0.02  -0.03  -0.16     0.00  -0.01  -0.06
  17   8    -0.01   0.14   0.19     0.09   0.01   0.01    -0.01   0.08   0.02
  18   1     0.02  -0.23  -0.02     0.03   0.09  -0.06    -0.05  -0.01   0.06
  19   1     0.02   0.11  -0.01     0.09   0.08   0.01    -0.11   0.02  -0.02
  20   1    -0.24  -0.05   0.11     0.10   0.06   0.04    -0.08   0.00   0.03
  21   1     0.09  -0.22   0.13    -0.05  -0.21  -0.01    -0.02  -0.02  -0.06
  22   1    -0.22   0.04  -0.13    -0.20  -0.07   0.08     0.05  -0.07   0.07
  23   1     0.21   0.22  -0.03    -0.06  -0.06   0.03    -0.06  -0.15  -0.02
  24   1    -0.03   0.11  -0.02     0.12  -0.07   0.00     0.08   0.04  -0.01
  25   1    -0.02  -0.25  -0.03     0.03  -0.09   0.08     0.03   0.01   0.05
  26   1     0.24  -0.05   0.14     0.12  -0.06  -0.02     0.04   0.02   0.04
  27   1    -0.20   0.24  -0.06    -0.04   0.01  -0.04     0.07  -0.18  -0.00
  28   1     0.25   0.03  -0.11    -0.21   0.05  -0.09    -0.02  -0.09   0.10
  29   1    -0.12  -0.22   0.13    -0.04   0.20  -0.01     0.04  -0.07  -0.06
                     10                     11                     12
                        a                      a                      a 
 Frequencies --   295.2053               302.3742               320.2459
 Red. masses --     9.2023                 7.9622                 9.8636
 Frc consts  --     0.0000                 0.0000                 0.0000
 IR Inten    --     2.3451                 0.1666                 2.2901
 Raman Activ --     0.0000                 0.0000                 0.0000
 Depolar     --     0.0000                 0.0000                 0.0000
 Atom AN      X      Y      Z        X      Y      Z        X      Y      Z
   1   6    -0.28   0.10  -0.06    -0.02  -0.05   0.06     0.12  -0.10   0.01
   2   6     0.00   0.10   0.09    -0.05  -0.05  -0.04     0.11  -0.11  -0.02
   3   1    -0.14   0.09  -0.04    -0.02  -0.05   0.03     0.06  -0.04   0.01
   4   1    -0.06   0.00  -0.00    -0.00   0.08   0.04     0.00   0.08  -0.03
   5   6    -0.24   0.01  -0.01    -0.02   0.08   0.19     0.00   0.06  -0.03
   6   6     0.34   0.19  -0.03    -0.28  -0.08   0.03     0.18   0.14  -0.14
   7   6     0.31  -0.20   0.06     0.30  -0.09   0.06    -0.16   0.15  -0.17
   8   7     0.01   0.00  -0.00     0.01  -0.12  -0.11     0.00  -0.35  -0.05
   9   6    -0.28  -0.10   0.02    -0.01  -0.06   0.06    -0.12  -0.10  -0.00
  10   6     0.01  -0.10  -0.09     0.06  -0.06  -0.04    -0.11  -0.11  -0.04
  11   1    -0.08   0.04   0.06    -0.01   0.00   0.02    -0.01  -0.05   0.04
  12   1    -0.14  -0.08   0.02     0.01  -0.05   0.03    -0.06  -0.04   0.00
  13   1    -0.03   0.00   0.00    -0.01   0.02   0.12    -0.00   0.02   0.05
  14   6     0.13  -0.08  -0.16     0.31   0.23  -0.12    -0.14   0.28   0.11
  15   6     0.13   0.06   0.19    -0.29   0.23  -0.15     0.13   0.27   0.13
  16   1    -0.07  -0.04  -0.07     0.00  -0.00   0.02     0.01  -0.04   0.04
  17   8    -0.24   0.01  -0.01    -0.01  -0.10   0.03    -0.02  -0.34   0.14
  18   1     0.03  -0.02  -0.08     0.07   0.07  -0.15    -0.05   0.09   0.02
  19   1     0.08  -0.03  -0.03     0.17   0.13  -0.03    -0.07   0.17  -0.01
  20   1     0.04  -0.02  -0.06     0.12   0.07   0.04    -0.02   0.09   0.15
  21   1     0.09  -0.03   0.09     0.11  -0.10   0.12    -0.05   0.04  -0.05
  22   1     0.12  -0.06   0.06     0.01  -0.02  -0.01    -0.05   0.04  -0.13
  23   1     0.14  -0.11  -0.04     0.19   0.03  -0.02    -0.06   0.12  -0.01
  24   1     0.08   0.03   0.04    -0.16   0.14  -0.05     0.07   0.17  -0.01
  25   1     0.02   0.01   0.09    -0.05   0.07  -0.15     0.04   0.08   0.02
  26   1     0.04   0.02   0.06    -0.12   0.07   0.03     0.01   0.08   0.15
  27   1     0.15   0.10   0.06    -0.17   0.04  -0.04     0.06   0.12  -0.00
  28   1     0.12   0.05  -0.04     0.00  -0.02  -0.01     0.07   0.04  -0.12
  29   1     0.11   0.04  -0.08    -0.12  -0.10   0.10     0.05   0.04  -0.04
                     13                     14                     15
                        a                      a                      a 
 Frequencies --   365.2572               393.8623               399.6811
 Red. masses --    11.6437                 7.1744                 8.2433
 Frc consts  --     0.0000                 0.0000                 0.0000
 IR Inten    --    12.2009                 1.1897                 0.7083
 Raman Activ --     0.0000                 0.0000                 0.0000
 Depolar     --     0.0000                 0.0000                 0.0000
 Atom AN      X      Y      Z        X      Y      Z        X      Y      Z
   1   6    -0.10  -0.08  -0.03     0.14   0.04   0.31     0.01   0.13  -0.10
   2   6     0.02  -0.08   0.04     0.01   0.06  -0.13     0.00   0.10   0.27
   3   1    -0.05   0.00  -0.02     0.21  -0.10   0.14    -0.09   0.14  -0.07
   4   1    -0.02   0.00  -0.00    -0.00  -0.18   0.04     0.07  -0.01   0.01
   5   6    -0.14   0.00  -0.01    -0.00  -0.12  -0.03     0.16  -0.01   0.01
   6   6    -0.03   0.16  -0.05     0.07  -0.21  -0.05     0.05   0.08   0.30
   7   6    -0.03  -0.16   0.04    -0.07  -0.20  -0.04     0.08  -0.09  -0.30
   8   7     0.09  -0.01   0.00     0.02   0.09  -0.26     0.06   0.00  -0.00
   9   6    -0.11   0.08   0.02    -0.17   0.05   0.29    -0.01  -0.13   0.12
  10   6     0.02   0.08  -0.04     0.00   0.06  -0.12     0.04  -0.10  -0.27
  11   1    -0.04   0.06   0.03    -0.01   0.11   0.26     0.03   0.03   0.16
  12   1    -0.06  -0.00   0.01    -0.22  -0.09   0.11    -0.11  -0.14   0.07
  13   1    -0.06   0.00  -0.00     0.01  -0.04  -0.15     0.08  -0.00  -0.00
  14   6    -0.16  -0.25  -0.02    -0.09   0.08  -0.07    -0.22   0.20   0.02
  15   6    -0.15   0.26  -0.00     0.11   0.09  -0.05    -0.21  -0.19  -0.05
  16   1    -0.03  -0.06  -0.03    -0.02   0.11   0.26     0.04  -0.02  -0.14
  17   8     0.69  -0.01   0.04    -0.00   0.17   0.00     0.12   0.01   0.01
  18   1    -0.01  -0.13   0.06    -0.02   0.02  -0.01    -0.05   0.05   0.07
  19   1    -0.06  -0.11   0.00    -0.04   0.04  -0.03    -0.16   0.15  -0.07
  20   1    -0.12  -0.08  -0.07    -0.03   0.02   0.01    -0.06   0.06   0.12
  21   1    -0.00  -0.08  -0.01    -0.01  -0.12  -0.04     0.02  -0.01  -0.08
  22   1    -0.04  -0.04   0.09    -0.07  -0.05   0.08     0.04  -0.03  -0.09
  23   1    -0.01  -0.09  -0.01    -0.01  -0.11  -0.04     0.02  -0.03  -0.09
  24   1    -0.06   0.11  -0.01     0.05   0.05  -0.03    -0.16  -0.15   0.05
  25   1    -0.00   0.14  -0.06     0.02   0.02  -0.00    -0.04  -0.05  -0.07
  26   1    -0.13   0.08   0.06     0.04   0.03   0.02    -0.05  -0.06  -0.13
  27   1    -0.01   0.10   0.01     0.01  -0.11  -0.04     0.02   0.02   0.09
  28   1    -0.02   0.04  -0.10     0.06  -0.05   0.08     0.02   0.02   0.10
  29   1    -0.00   0.08   0.01     0.01  -0.12  -0.04     0.01   0.01   0.07
                     16                     17                     18
                        a                      a                      a 
 Frequencies --   446.9539               459.7976               519.0207
 Red. masses --     9.5532                 9.3938                11.5023
 Frc consts  --     0.0000                 0.0000                 0.0000
 IR Inten    --     0.1669                 1.0967                 3.2155
 Raman Activ --     0.0000                 0.0000                 0.0000
 Depolar     --     0.0000                 0.0000                 0.0000
 Atom AN      X      Y      Z        X      Y      Z        X      Y      Z
   1   6    -0.24  -0.12   0.03    -0.19   0.13   0.06    -0.05   0.13  -0.02
   2   6    -0.18  -0.06  -0.04     0.28   0.13  -0.05    -0.03   0.08   0.15
   3   1    -0.16  -0.02  -0.00    -0.07   0.03   0.02    -0.07   0.10  -0.03
   4   1    -0.01  -0.19   0.10    -0.13   0.00  -0.01    -0.00  -0.04   0.01
   5   6    -0.02  -0.41   0.27    -0.26   0.00  -0.02     0.00   0.04  -0.03
   6   6     0.07   0.02  -0.17    -0.09  -0.00   0.12     0.15   0.02   0.17
   7   6    -0.05   0.03  -0.18    -0.08   0.00  -0.13    -0.17   0.03   0.15
   8   7     0.01   0.19  -0.14     0.24  -0.00   0.02     0.04  -0.26  -0.71
   9   6     0.23  -0.12   0.06    -0.18  -0.13  -0.09     0.05   0.13  -0.01
  10   6     0.19  -0.06  -0.01     0.27  -0.13   0.09     0.01   0.08   0.15
  11   1     0.01  -0.01  -0.10    -0.08   0.02  -0.03     0.00  -0.01  -0.07
  12   1     0.16  -0.02   0.02    -0.06  -0.03  -0.03     0.07   0.10  -0.02
  13   1    -0.00  -0.12  -0.01    -0.00   0.00   0.00     0.00   0.01  -0.07
  14   6     0.08   0.10   0.16     0.13  -0.11   0.31     0.12  -0.05   0.06
  15   6    -0.09   0.11   0.15     0.17   0.10  -0.29    -0.13  -0.05   0.04
  16   1     0.00  -0.01  -0.09    -0.08  -0.02   0.02     0.01  -0.01  -0.07
  17   8     0.01   0.24  -0.07    -0.10   0.00  -0.01    -0.00  -0.10   0.11
  18   1     0.02   0.05   0.06     0.05  -0.04   0.16     0.03  -0.01  -0.03
  19   1    -0.03   0.09   0.01    -0.04  -0.02   0.06     0.09  -0.05   0.05
  20   1     0.05   0.03   0.12     0.02  -0.03   0.10     0.04  -0.02  -0.03
  21   1    -0.02   0.01  -0.12    -0.03  -0.02  -0.14    -0.04  -0.05  -0.04
  22   1    -0.02   0.01  -0.08    -0.05   0.00  -0.10    -0.11   0.01   0.07
  23   1    -0.08   0.04   0.00    -0.12   0.08   0.05    -0.09   0.01   0.07
  24   1     0.03   0.09   0.01    -0.03   0.02  -0.06    -0.10  -0.05   0.04
  25   1    -0.02   0.05   0.06     0.07   0.04  -0.15    -0.02  -0.01  -0.03
  26   1    -0.07   0.04   0.12     0.04   0.03  -0.10    -0.03  -0.02  -0.04
  27   1     0.08   0.04   0.01    -0.11  -0.08  -0.07     0.09   0.01   0.08
  28   1     0.03   0.01  -0.08    -0.07  -0.00   0.10     0.09   0.01   0.09
  29   1     0.04   0.01  -0.12    -0.05   0.02   0.14     0.05  -0.05  -0.04
                     19                     20                     21
                        a                      a                      a 
 Frequencies --   537.0206               584.0485               665.8320
 Red. masses --    10.2957                 7.8326                10.3402
 Frc consts  --     0.0000                 0.0000                 0.0000
 IR Inten    --     7.2211                 1.7665                 0.6173
 Raman Activ --     0.0000                 0.0000                 0.0000
 Depolar     --     0.0000                 0.0000                 0.0000
 Atom AN      X      Y      Z        X      Y      Z        X      Y      Z
   1   6     0.09  -0.36  -0.05     0.13  -0.09  -0.08     0.11  -0.32  -0.05
   2   6     0.19  -0.24   0.13    -0.22  -0.08   0.03     0.21  -0.08   0.09
   3   1    -0.02  -0.07  -0.03     0.21  -0.08   0.01     0.04  -0.07  -0.02
   4   1     0.06  -0.00   0.00     0.01   0.29  -0.14     0.00   0.15  -0.06
   5   6    -0.03  -0.00  -0.00     0.02   0.21  -0.25    -0.00  -0.15   0.01
   6   6     0.01   0.08   0.07    -0.01  -0.03  -0.08     0.08   0.09   0.23
   7   6     0.02  -0.08  -0.07     0.02  -0.03  -0.09    -0.10   0.09   0.22
   8   7     0.18  -0.00   0.01     0.01   0.12  -0.07     0.01   0.22  -0.23
   9   6     0.09   0.36   0.06    -0.12  -0.08  -0.09    -0.11  -0.32  -0.06
  10   6     0.21   0.24  -0.10     0.21  -0.08   0.06    -0.22  -0.08   0.07
  11   1     0.01   0.16   0.04     0.01   0.06   0.14    -0.01  -0.12  -0.00
  12   1    -0.02   0.07   0.03    -0.21  -0.08  -0.02    -0.04  -0.07  -0.02
  13   1    -0.14   0.00  -0.01    -0.01   0.06   0.17    -0.01  -0.04   0.21
  14   6    -0.05   0.01  -0.03     0.22  -0.10   0.26    -0.09   0.03  -0.11
  15   6    -0.06  -0.01   0.03    -0.25  -0.10   0.23     0.10   0.03  -0.09
  16   1     0.02  -0.16  -0.04    -0.03   0.06   0.14     0.01  -0.12   0.00
  17   8    -0.45   0.00  -0.03     0.00   0.17  -0.05     0.01   0.36  -0.10
  18   1     0.02  -0.05   0.11     0.07  -0.03   0.10    -0.06   0.05  -0.13
  19   1    -0.08  -0.04  -0.02     0.04  -0.03   0.06     0.05   0.02  -0.00
  20   1    -0.08  -0.00  -0.07     0.06  -0.03   0.08     0.03   0.01  -0.02
  21   1     0.02  -0.10  -0.09    -0.00  -0.01  -0.10    -0.03   0.07   0.12
  22   1    -0.06  -0.02   0.09    -0.01  -0.01  -0.07     0.01   0.02   0.02
  23   1    -0.01  -0.08  -0.04    -0.06   0.05   0.04    -0.00   0.05   0.06
  24   1    -0.08   0.04   0.01    -0.04  -0.03   0.06    -0.05   0.02  -0.01
  25   1     0.03   0.05  -0.10    -0.08  -0.03   0.09     0.07   0.05  -0.13
  26   1    -0.09   0.00   0.06    -0.07  -0.03   0.07    -0.03   0.01  -0.02
  27   1    -0.02   0.08   0.03     0.06   0.05   0.05    -0.00   0.05   0.05
  28   1    -0.05   0.02  -0.09     0.02  -0.01  -0.07    -0.01   0.02   0.02
  29   1     0.01   0.10   0.09     0.01  -0.01  -0.10     0.02   0.07   0.12
                     22                     23                     24
                        a                      a                      a 
 Frequencies --   819.1628               838.1813               884.4063
 Red. masses --     8.5450                 7.5311                 5.1639
 Frc consts  --     0.0000                 0.0000                 0.0000
 IR Inten    --     0.2313                 0.5194                 4.9430
 Raman Activ --     0.0000                 0.0000                 0.0000
 Depolar     --     0.0000                 0.0000                 0.0000
 Atom AN      X      Y      Z        X      Y      Z        X      Y      Z
   1   6     0.02  -0.24  -0.17     0.08   0.08   0.10    -0.16   0.16  -0.29
   2   6    -0.17   0.09  -0.08     0.25  -0.17   0.10     0.07  -0.04  -0.02
   3   1     0.14  -0.14  -0.01    -0.11   0.07   0.00     0.31  -0.11   0.00
   4   1     0.14   0.00   0.01    -0.01  -0.20   0.08     0.24  -0.00   0.02
   5   6    -0.09  -0.00  -0.00     0.00   0.32  -0.04     0.00   0.00  -0.00
   6   6     0.04   0.14   0.30     0.01  -0.12  -0.17     0.04  -0.05   0.02
   7   6     0.08  -0.14  -0.29     0.01  -0.13  -0.17     0.04   0.05  -0.02
   8   7    -0.23   0.00  -0.01     0.00   0.11  -0.06     0.21  -0.00   0.01
   9   6     0.00   0.24   0.17    -0.09   0.09   0.09    -0.19  -0.15   0.26
  10   6    -0.18  -0.08   0.06    -0.27  -0.17   0.07     0.06   0.03   0.03
  11   1    -0.04  -0.00  -0.10    -0.01  -0.11  -0.06    -0.14  -0.19  -0.27
  12   1     0.14   0.14   0.03     0.10   0.07   0.01     0.31   0.11   0.04
  13   1    -0.19   0.00  -0.01     0.02   0.08  -0.30     0.09   0.00   0.00
  14   6     0.09  -0.10   0.20     0.03  -0.11   0.15    -0.06   0.06  -0.11
  15   6     0.12   0.10  -0.19    -0.05  -0.10   0.15    -0.07  -0.06   0.10
  16   1    -0.05   0.00   0.09     0.01  -0.12  -0.06    -0.18   0.20   0.26
  17   8     0.08  -0.00   0.00     0.01   0.19  -0.06    -0.03   0.00  -0.00
  18   1    -0.01   0.04  -0.05    -0.05   0.07  -0.11     0.00  -0.01   0.03
  19   1     0.09   0.01   0.07     0.10   0.01   0.06    -0.06   0.01  -0.05
  20   1     0.12  -0.02   0.11     0.13  -0.02   0.11    -0.06   0.01  -0.04
  21   1     0.02   0.01  -0.01    -0.01   0.06   0.06     0.02  -0.07  -0.07
  22   1     0.07  -0.04  -0.11     0.09  -0.04  -0.14    -0.06   0.02   0.10
  23   1     0.07  -0.04  -0.11     0.05   0.00  -0.06    -0.02  -0.05  -0.02
  24   1     0.10  -0.01  -0.05    -0.10   0.02   0.05    -0.07  -0.01   0.04
  25   1    -0.02  -0.04   0.05     0.06   0.06  -0.10     0.01   0.02  -0.03
  26   1     0.13   0.02  -0.10    -0.14  -0.02   0.10    -0.07  -0.01   0.03
  27   1     0.06   0.04   0.12    -0.05  -0.00  -0.07    -0.02   0.05   0.01
  28   1     0.06   0.04   0.12    -0.07  -0.04  -0.15    -0.05  -0.02  -0.11
  29   1     0.02  -0.01   0.01     0.00   0.06   0.06     0.02   0.07   0.08
                     25                     26                     27
                        a                      a                      a 
 Frequencies --   922.8733               951.9551               953.9414
 Red. masses --     7.2999                 4.7174                 5.2636
 Frc consts  --     0.0000                 0.0000                 0.0000
 IR Inten    --     1.3677                 0.8752                 2.4096
 Raman Activ --     0.0000                 0.0000                 0.0000
 Depolar     --     0.0000                 0.0000                 0.0000
 Atom AN      X      Y      Z        X      Y      Z        X      Y      Z
   1   6    -0.40   0.09  -0.05    -0.02   0.05   0.02    -0.10   0.07   0.03
   2   6    -0.04  -0.16  -0.06    -0.07  -0.05   0.16    -0.01   0.02   0.20
   3   1     0.06  -0.11   0.05     0.01   0.02   0.00     0.04   0.06  -0.00
   4   1    -0.00  -0.00  -0.03     0.02  -0.00   0.00     0.00   0.12  -0.06
   5   6     0.01   0.14  -0.14     0.02   0.00   0.00     0.01  -0.13  -0.06
   6   6     0.06  -0.02   0.19    -0.20  -0.16  -0.01    -0.18  -0.14  -0.11
   7   6    -0.09  -0.02   0.19    -0.19   0.16  -0.02     0.19  -0.15  -0.09
   8   7    -0.00   0.00  -0.01    -0.04   0.00  -0.00    -0.00   0.01   0.03
   9   6     0.41   0.09  -0.01    -0.02  -0.05  -0.02     0.10   0.07   0.04
  10   6     0.05  -0.17  -0.06    -0.05   0.05  -0.17    -0.02   0.02   0.21
  11   1     0.17   0.11   0.21    -0.00  -0.02  -0.01     0.04   0.03   0.05
  12   1    -0.07  -0.11   0.04     0.01  -0.02  -0.00    -0.05   0.06  -0.01
  13   1     0.00   0.04  -0.10     0.03   0.00  -0.00    -0.00  -0.03   0.12
  14   6    -0.06  -0.07  -0.10     0.23  -0.09   0.08    -0.22   0.10  -0.01
  15   6     0.07  -0.07  -0.09     0.24   0.09  -0.05     0.23   0.09   0.01
  16   1    -0.19   0.11   0.18    -0.00   0.02   0.01    -0.04   0.03   0.04
  17   8     0.00  -0.02  -0.00    -0.01   0.00  -0.00    -0.00  -0.02   0.01
  18   1    -0.06   0.08  -0.07     0.09  -0.04   0.21    -0.09   0.04  -0.23
  19   1    -0.05   0.09  -0.08    -0.13   0.06  -0.08     0.18  -0.08   0.13
  20   1     0.10  -0.01   0.13     0.02  -0.02   0.15    -0.02   0.02  -0.17
  21   1    -0.04   0.09   0.10    -0.02   0.02   0.24     0.03  -0.04  -0.23
  22   1     0.05  -0.01  -0.10     0.01   0.03   0.22    -0.01  -0.03  -0.17
  23   1    -0.03   0.10   0.10     0.18  -0.17  -0.24    -0.12   0.10   0.14
  24   1     0.06   0.09  -0.07    -0.14  -0.06   0.07    -0.19  -0.08   0.10
  25   1     0.06   0.07  -0.06     0.12   0.04  -0.20     0.13   0.04  -0.22
  26   1    -0.11  -0.01   0.12     0.04   0.02  -0.14     0.03   0.02  -0.16
  27   1     0.01   0.09   0.09     0.15   0.17   0.26     0.10   0.10   0.16
  28   1    -0.03  -0.01  -0.10     0.03  -0.04  -0.23     0.02  -0.04  -0.18
  29   1     0.03   0.09   0.10     0.01  -0.02  -0.24    -0.00  -0.04  -0.22
                     28                     29                     30
                        a                      a                      a 
 Frequencies --   957.9739               971.0248               997.6834
 Red. masses --     6.0860                 5.5332                 4.0358
 Frc consts  --     0.0000                 0.0000                 0.0000
 IR Inten    --     1.3207                 7.6480                 0.1676
 Raman Activ --     0.0000                 0.0000                 0.0000
 Depolar     --     0.0000                 0.0000                 0.0000
 Atom AN      X      Y      Z        X      Y      Z        X      Y      Z
   1   6     0.08  -0.13  -0.09    -0.18   0.11   0.02     0.08   0.00   0.10
   2   6     0.11   0.23   0.10     0.17   0.09   0.06    -0.10  -0.07   0.01
   3   1     0.08   0.00  -0.03     0.08   0.11  -0.02    -0.04   0.13  -0.02
   4   1     0.07  -0.00   0.00     0.01   0.25  -0.13     0.00   0.05  -0.04
   5   6    -0.16   0.00  -0.01     0.00  -0.30  -0.11     0.01   0.05  -0.10
   6   6    -0.06   0.02  -0.23     0.09   0.04  -0.19    -0.14   0.15   0.02
   7   6    -0.08  -0.02   0.22    -0.07   0.04  -0.20     0.14   0.15   0.04
   8   7     0.10   0.00   0.01    -0.00  -0.02  -0.02    -0.01   0.02   0.07
   9   6     0.06   0.13   0.10     0.18   0.11   0.05    -0.09   0.00   0.09
  10   6     0.12  -0.23  -0.08    -0.18   0.09   0.03     0.10  -0.07   0.02
  11   1    -0.04   0.10  -0.05     0.07   0.04   0.07    -0.04  -0.08  -0.07
  12   1     0.08  -0.00   0.04    -0.08   0.11  -0.03     0.04   0.13  -0.02
  13   1    -0.19   0.00  -0.01    -0.02  -0.07   0.32     0.00   0.01   0.01
  14   6    -0.05  -0.14  -0.18     0.01  -0.09   0.11    -0.09  -0.18  -0.11
  15   6    -0.06   0.14   0.17    -0.02  -0.09   0.11     0.10  -0.18  -0.10
  16   1    -0.05  -0.10   0.04    -0.08   0.04   0.06     0.04  -0.07  -0.07
  17   8     0.01   0.00   0.00    -0.00  -0.06   0.02     0.00   0.02  -0.01
  18   1    -0.06   0.10  -0.03    -0.04   0.05  -0.06    -0.11   0.14  -0.12
  19   1    -0.16   0.16  -0.18     0.06   0.02   0.04    -0.08   0.15  -0.12
  20   1     0.13  -0.02   0.23     0.10  -0.02   0.10     0.18  -0.03   0.24
  21   1    -0.04   0.08   0.09     0.01  -0.01   0.14     0.06  -0.17  -0.23
  22   1     0.04  -0.01  -0.09     0.02   0.01   0.13    -0.15   0.06   0.21
  23   1    -0.04   0.10   0.12     0.15  -0.15  -0.23    -0.09  -0.05   0.05
  24   1    -0.19  -0.16   0.16    -0.07   0.02   0.03     0.10   0.15  -0.12
  25   1    -0.06  -0.10   0.01     0.05   0.05  -0.06     0.12   0.13  -0.10
  26   1     0.16   0.02  -0.22    -0.11  -0.01   0.08    -0.20  -0.02   0.21
  27   1    -0.02  -0.10  -0.12    -0.12  -0.16  -0.25     0.08  -0.04   0.07
  28   1     0.03   0.01   0.09    -0.03   0.01   0.14     0.11   0.05   0.21
  29   1    -0.03  -0.09  -0.11    -0.03  -0.02   0.12    -0.03  -0.16  -0.23
                     31                     32                     33
                        a                      a                      a 
 Frequencies --  1002.7184              1015.3016              1048.5147
 Red. masses --     3.3708                 5.8905                 5.3800
 Frc consts  --     0.0000                 0.0000                 0.0000
 IR Inten    --     0.6472                 9.5128                 2.7068
 Raman Activ --     0.0000                 0.0000                 0.0000
 Depolar     --     0.0000                 0.0000                 0.0000
 Atom AN      X      Y      Z        X      Y      Z        X      Y      Z
   1   6    -0.02  -0.03  -0.04    -0.24  -0.25   0.06    -0.04   0.02   0.26
   2   6    -0.02   0.01  -0.01     0.05   0.06   0.03    -0.04  -0.04   0.15
   3   1     0.07   0.04  -0.02    -0.06  -0.09   0.03    -0.06   0.25  -0.03
   4   1     0.12  -0.00   0.01    -0.00  -0.06  -0.01     0.01   0.17  -0.12
   5   6     0.01   0.01  -0.00     0.01   0.26  -0.19     0.02  -0.04  -0.27
   6   6    -0.13   0.21  -0.05    -0.05   0.12  -0.08     0.00  -0.13  -0.03
   7   6    -0.13  -0.20   0.03     0.06   0.13  -0.07    -0.00  -0.13  -0.03
   8   7     0.06   0.00   0.01    -0.00   0.00   0.02     0.00   0.00  -0.06
   9   6    -0.02   0.02   0.04     0.23  -0.25   0.09     0.01   0.02   0.26
  10   6    -0.01  -0.01   0.00    -0.05   0.06   0.02     0.02  -0.04   0.15
  11   1    -0.02  -0.00  -0.03     0.20  -0.27   0.14     0.05  -0.21  -0.02
  12   1     0.07  -0.04   0.03     0.06  -0.09   0.03     0.07   0.25  -0.02
  13   1    -0.06   0.00  -0.01     0.01   0.06  -0.17    -0.01  -0.01   0.12
  14   6     0.10   0.18  -0.02     0.01   0.10   0.05     0.09   0.07  -0.19
  15   6     0.10  -0.18   0.03    -0.02   0.11   0.04    -0.06   0.07  -0.20
  16   1    -0.03  -0.01   0.03    -0.21  -0.27   0.12    -0.05  -0.21  -0.02
  17   8     0.00   0.00  -0.00     0.00   0.01   0.00     0.00   0.06  -0.02
  18   1     0.12  -0.14   0.19     0.03  -0.05   0.02     0.08  -0.05   0.20
  19   1    -0.04  -0.09   0.02     0.05  -0.07   0.07    -0.20   0.05  -0.15
  20   1    -0.20   0.03  -0.19    -0.07   0.02  -0.11    -0.10   0.01   0.00
  21   1    -0.07   0.19   0.21     0.04  -0.11  -0.11    -0.02   0.06   0.05
  22   1     0.16  -0.07  -0.28    -0.08   0.04   0.18     0.07  -0.04  -0.14
  23   1     0.05   0.11   0.03     0.00  -0.10  -0.07     0.00   0.05   0.03
  24   1    -0.04   0.09  -0.03    -0.06  -0.07   0.06     0.21   0.05  -0.12
  25   1     0.15   0.14  -0.17    -0.04  -0.06   0.03    -0.11  -0.05   0.19
  26   1    -0.22  -0.03   0.17     0.09   0.02  -0.11     0.10   0.01   0.01
  27   1     0.05  -0.11  -0.01     0.00  -0.09  -0.07    -0.01   0.05   0.03
  28   1     0.13   0.07   0.31     0.06   0.04   0.18    -0.06  -0.04  -0.15
  29   1    -0.05  -0.20  -0.24    -0.03  -0.10  -0.11     0.01   0.06   0.05
                     34                     35                     36
                        a                      a                      a 
 Frequencies --  1058.7501              1085.5033              1114.7495
 Red. masses --     8.7564                 4.1030                 5.1616
 Frc consts  --     0.0000                 0.0000                 0.0000
 IR Inten    --    23.5233                 3.7640                 1.7448
 Raman Activ --     0.0000                 0.0000                 0.0000
 Depolar     --     0.0000                 0.0000                 0.0000
 Atom AN      X      Y      Z        X      Y      Z        X      Y      Z
   1   6    -0.02  -0.02   0.01    -0.03  -0.06  -0.04    -0.23  -0.11   0.12
   2   6    -0.03  -0.01  -0.12    -0.01   0.01  -0.26     0.08  -0.09   0.02
   3   1    -0.07  -0.09   0.03    -0.16  -0.31   0.09    -0.08  -0.09   0.05
   4   1    -0.09   0.00  -0.01    -0.30   0.00  -0.02     0.21  -0.00   0.01
   5   6     0.04   0.00   0.00     0.06   0.00   0.00     0.39  -0.00   0.02
   6   6    -0.16   0.04   0.07     0.06   0.07   0.09    -0.02   0.06  -0.01
   7   6    -0.15  -0.04  -0.09     0.07  -0.07  -0.08    -0.02  -0.06   0.01
   8   7     0.67  -0.00   0.04    -0.05   0.00  -0.00    -0.14   0.00  -0.01
   9   6    -0.02   0.02  -0.01    -0.03   0.06   0.03    -0.21   0.11  -0.14
  10   6    -0.05   0.01   0.12    -0.04  -0.01   0.26     0.08   0.09  -0.01
  11   1     0.04  -0.07   0.04     0.10  -0.18   0.08    -0.17   0.23  -0.13
  12   1    -0.06   0.09  -0.04    -0.15   0.31  -0.11    -0.07   0.09  -0.06
  13   1     0.07  -0.00   0.00     0.14  -0.00   0.01     0.55  -0.00   0.03
  14   6    -0.17  -0.04   0.02     0.08  -0.01  -0.20    -0.01  -0.08   0.00
  15   6    -0.17   0.04  -0.04     0.06   0.01   0.20    -0.01   0.08  -0.01
  16   1     0.04   0.06  -0.03     0.11   0.18  -0.07    -0.19  -0.22   0.11
  17   8    -0.08   0.00  -0.01     0.02  -0.00   0.00     0.00   0.00   0.00
  18   1    -0.11   0.08  -0.19     0.05  -0.01   0.17    -0.03   0.04  -0.03
  19   1     0.10   0.00   0.06    -0.20   0.08  -0.17     0.00   0.04  -0.02
  20   1     0.07  -0.01   0.01    -0.05  -0.00   0.07     0.06  -0.01   0.06
  21   1    -0.04   0.08   0.20     0.01  -0.02  -0.05    -0.01   0.04   0.03
  22   1     0.08  -0.02  -0.01     0.02  -0.02  -0.05     0.03  -0.02  -0.08
  23   1     0.12  -0.05  -0.14    -0.01   0.01   0.00     0.00   0.03   0.02
  24   1     0.10  -0.00  -0.04    -0.22  -0.08   0.14    -0.00  -0.04   0.02
  25   1    -0.13  -0.07   0.17     0.07   0.01  -0.16    -0.03  -0.04   0.03
  26   1     0.07   0.01   0.00    -0.04  -0.00  -0.07     0.07   0.01  -0.06
  27   1     0.10   0.05   0.15    -0.01  -0.01  -0.01     0.01  -0.03  -0.02
  28   1     0.07   0.02   0.02     0.01   0.02   0.05     0.02   0.02   0.08
  29   1    -0.01  -0.08  -0.20     0.01   0.02   0.05    -0.01  -0.04  -0.03
                     37                     38                     39
                        a                      a                      a 
 Frequencies --  1147.5624              1175.6436              1194.8729
 Red. masses --     8.0025                 7.9367                 9.4118
 Frc consts  --     0.0000                 0.0000                 0.0000
 IR Inten    --     6.9433                 2.4336                19.7136
 Raman Activ --     0.0000                 0.0000                 0.0000
 Depolar     --     0.0000                 0.0000                 0.0000
 Atom AN      X      Y      Z        X      Y      Z        X      Y      Z
   1   6    -0.20  -0.12   0.15    -0.02   0.09  -0.18     0.01  -0.08  -0.20
   2   6    -0.30   0.03   0.13     0.41   0.04   0.07    -0.19   0.01   0.44
   3   1    -0.06  -0.01   0.03     0.13  -0.02  -0.02     0.16   0.01  -0.05
   4   1     0.34  -0.00   0.02    -0.00  -0.05   0.07     0.00  -0.14   0.11
   5   6     0.27  -0.00   0.01    -0.01  -0.12   0.23    -0.01   0.13   0.23
   6   6     0.10  -0.01  -0.08    -0.17  -0.01  -0.00     0.05  -0.00  -0.15
   7   6     0.09   0.01   0.09     0.17  -0.01   0.02    -0.03  -0.00  -0.16
   8   7     0.32  -0.00   0.02     0.00   0.00  -0.00     0.00  -0.01  -0.06
   9   6    -0.18   0.12  -0.17     0.04   0.09  -0.17     0.01  -0.09  -0.21
  10   6    -0.28  -0.03  -0.17    -0.42   0.04   0.01     0.14   0.00   0.48
  11   1     0.09  -0.20   0.06     0.10  -0.03   0.12     0.03   0.06   0.08
  12   1    -0.05   0.01  -0.04    -0.13  -0.02  -0.03    -0.15   0.00  -0.07
  13   1    -0.22   0.00  -0.01    -0.00  -0.03   0.02    -0.00   0.03  -0.10
  14   6     0.10  -0.05   0.06     0.18  -0.05  -0.03    -0.06   0.00  -0.17
  15   6     0.11   0.05  -0.04    -0.17  -0.04  -0.05     0.08  -0.00  -0.15
  16   1     0.10   0.20  -0.05    -0.11  -0.02   0.10    -0.03   0.06   0.07
  17   8    -0.03   0.00  -0.00     0.00   0.03  -0.01     0.00   0.02  -0.01
  18   1     0.04  -0.02   0.07     0.07  -0.03   0.18    -0.03   0.05   0.00
  19   1    -0.03  -0.00  -0.01    -0.11   0.03  -0.08    -0.09   0.06  -0.09
  20   1     0.01  -0.01   0.05    -0.02  -0.01   0.09    -0.03   0.00   0.02
  21   1     0.01  -0.03  -0.11     0.03  -0.06  -0.19     0.01  -0.02   0.06
  22   1    -0.06   0.01  -0.03    -0.07   0.01  -0.03     0.04  -0.01   0.03
  23   1    -0.10   0.05   0.12    -0.11   0.04   0.11     0.08  -0.07  -0.13
  24   1    -0.03   0.00   0.01     0.12   0.03  -0.07     0.10   0.06  -0.08
  25   1     0.05   0.02  -0.07    -0.10  -0.03   0.17     0.03   0.04   0.01
  26   1     0.01   0.01  -0.05     0.01  -0.01   0.09     0.03   0.00   0.02
  27   1    -0.09  -0.05  -0.13     0.09   0.04   0.12    -0.07  -0.07  -0.13
  28   1    -0.07  -0.01   0.02     0.08   0.00  -0.02    -0.04  -0.00   0.03
  29   1    -0.00   0.03   0.11    -0.01  -0.06  -0.19    -0.02  -0.02   0.05
                     40                     41                     42
                        a                      a                      a 
 Frequencies --  1204.7868              1242.4898              1256.0637
 Red. masses --     6.8018                 7.8488                 7.5238
 Frc consts  --     0.0000                 0.0000                 0.0000
 IR Inten    --     0.0280                 1.6558                13.2908
 Raman Activ --     0.0000                 0.0000                 0.0000
 Depolar     --     0.0000                 0.0000                 0.0000
 Atom AN      X      Y      Z        X      Y      Z        X      Y      Z
   1   6    -0.07   0.02   0.20     0.09   0.10   0.05    -0.11   0.11   0.03
   2   6     0.17   0.15  -0.36    -0.22  -0.32  -0.24     0.26  -0.36   0.08
   3   1    -0.07   0.09   0.02     0.10   0.29  -0.09    -0.00  -0.02   0.03
   4   1     0.48   0.00   0.03     0.05  -0.00   0.00     0.14   0.00   0.01
   5   6     0.09  -0.00   0.00    -0.17   0.00  -0.01     0.02   0.00  -0.00
   6   6    -0.04  -0.07   0.11     0.07   0.08   0.07    -0.05   0.09  -0.02
   7   6    -0.02   0.07  -0.10     0.08  -0.09  -0.06    -0.05  -0.10   0.01
   8   7    -0.08   0.00  -0.00     0.18  -0.00   0.01    -0.25   0.00  -0.02
   9   6    -0.04  -0.02  -0.20     0.10  -0.11  -0.04    -0.11  -0.12  -0.04
  10   6     0.11  -0.16   0.36    -0.24   0.35   0.21     0.27   0.37  -0.04
  11   1    -0.01   0.09   0.02    -0.03   0.12  -0.00     0.11  -0.29   0.08
  12   1    -0.06  -0.09  -0.02     0.09  -0.30   0.10     0.01   0.01  -0.02
  13   1    -0.34   0.00  -0.02     0.12  -0.00   0.01    -0.24   0.00  -0.01
  14   6    -0.05   0.05  -0.12     0.06  -0.11  -0.07    -0.05  -0.11   0.01
  15   6    -0.07  -0.05   0.12     0.06   0.10   0.07    -0.05   0.11  -0.02
  16   1    -0.01  -0.09  -0.02    -0.04  -0.12   0.00     0.13   0.29  -0.06
  17   8     0.03  -0.00   0.00    -0.04  -0.00  -0.00    -0.01  -0.00   0.00
  18   1    -0.01   0.01   0.00    -0.01   0.06   0.07    -0.05   0.07  -0.06
  19   1    -0.06   0.01  -0.05    -0.08   0.08  -0.09     0.04   0.07  -0.01
  20   1    -0.05   0.01  -0.03     0.03  -0.02   0.14     0.11  -0.01   0.07
  21   1     0.02  -0.05   0.02     0.01   0.01  -0.07    -0.02   0.07   0.04
  22   1    -0.00   0.01   0.06     0.00  -0.02  -0.08     0.08  -0.03  -0.10
  23   1     0.06  -0.09  -0.11    -0.02   0.03   0.03     0.05   0.06   0.00
  24   1    -0.07  -0.01   0.04    -0.10  -0.07   0.08     0.04  -0.07   0.02
  25   1    -0.01  -0.01  -0.00     0.01  -0.05  -0.07    -0.06  -0.07   0.05
  26   1    -0.06  -0.01   0.03     0.04   0.01  -0.13     0.12   0.01  -0.05
  27   1     0.05   0.10   0.12    -0.01  -0.03  -0.03     0.05  -0.06   0.01
  28   1     0.01  -0.02  -0.07    -0.01   0.02   0.08     0.07   0.03   0.11
  29   1     0.02   0.05  -0.02    -0.00  -0.01   0.06    -0.02  -0.07  -0.04
                     43                     44                     45
                        a                      a                      a 
 Frequencies --  1259.9141              1273.9516              1337.1703
 Red. masses --     8.8133                 4.4167                 4.8644
 Frc consts  --     0.0000                 0.0000                 0.0000
 IR Inten    --    39.9371                 8.0391                 0.3451
 Raman Activ --     0.0000                 0.0000                 0.0000
 Depolar     --     0.0000                 0.0000                 0.0000
 Atom AN      X      Y      Z        X      Y      Z        X      Y      Z
   1   6     0.06  -0.13  -0.02    -0.08  -0.10   0.08    -0.03   0.17  -0.07
   2   6    -0.05   0.52  -0.04     0.13   0.13   0.21    -0.05  -0.10  -0.01
   3   1    -0.03  -0.08   0.01    -0.23  -0.33   0.12    -0.04  -0.05   0.02
   4   1    -0.00  -0.04   0.02     0.00   0.08  -0.10    -0.38   0.00  -0.02
   5   6     0.00   0.00   0.03     0.02   0.04  -0.29     0.50  -0.00   0.03
   6   6     0.01  -0.15   0.01    -0.05  -0.02  -0.07     0.01   0.04   0.03
   7   6    -0.01  -0.14   0.01     0.06  -0.02  -0.06     0.02  -0.03  -0.03
   8   7    -0.00   0.04  -0.01     0.01   0.01  -0.03     0.03  -0.00   0.00
   9   6    -0.06  -0.13  -0.03     0.07  -0.09   0.09    -0.04  -0.17   0.06
  10   6     0.07   0.50  -0.05    -0.16   0.11   0.19    -0.05   0.10   0.01
  11   1     0.08  -0.20   0.05    -0.19   0.31  -0.15    -0.18   0.20  -0.15
  12   1     0.02  -0.06   0.01     0.20  -0.33   0.15    -0.04   0.05  -0.02
  13   1    -0.00  -0.00   0.00     0.00   0.01  -0.01    -0.54   0.00  -0.03
  14   6    -0.02  -0.16   0.02     0.04  -0.02  -0.06     0.02  -0.03   0.01
  15   6     0.01  -0.16   0.02    -0.04  -0.02  -0.06     0.02   0.03  -0.00
  16   1    -0.09  -0.20   0.04     0.20   0.29  -0.12    -0.20  -0.19   0.13
  17   8    -0.00  -0.17   0.05    -0.00  -0.04   0.01    -0.01   0.00  -0.00
  18   1    -0.06   0.09  -0.04     0.01   0.02   0.06    -0.01   0.03   0.00
  19   1     0.02   0.09  -0.03    -0.06   0.02  -0.05    -0.01   0.02  -0.01
  20   1     0.11  -0.02   0.12    -0.03  -0.00   0.06    -0.01  -0.01   0.01
  21   1    -0.03   0.09   0.02     0.01  -0.01  -0.04    -0.00   0.03   0.01
  22   1     0.06  -0.03  -0.14    -0.02  -0.00  -0.01    -0.01  -0.00   0.02
  23   1     0.02   0.08   0.04    -0.01  -0.01  -0.00    -0.01   0.03   0.02
  24   1    -0.01   0.09  -0.04     0.06   0.02  -0.04    -0.01  -0.02   0.01
  25   1     0.06   0.09  -0.03    -0.01   0.02   0.05    -0.01  -0.03  -0.00
  26   1    -0.13  -0.02   0.12     0.02  -0.00   0.07    -0.01   0.01  -0.01
  27   1    -0.02   0.09   0.03     0.01  -0.01   0.00    -0.01  -0.03  -0.03
  28   1    -0.04  -0.04  -0.15     0.02  -0.00  -0.01    -0.01   0.00  -0.02
  29   1     0.03   0.09   0.02    -0.01  -0.01  -0.04    -0.00  -0.03  -0.01
                     46                     47                     48
                        a                      a                      a 
 Frequencies --  1352.0281              1356.1834              1382.8610
 Red. masses --     5.2086                 5.5102                11.3042
 Frc consts  --     0.0000                 0.0000                 0.0000
 IR Inten    --     0.8765                 6.2011                28.4491
 Raman Activ --     0.0000                 0.0000                 0.0000
 Depolar     --     0.0000                 0.0000                 0.0000
 Atom AN      X      Y      Z        X      Y      Z        X      Y      Z
   1   6    -0.23  -0.29   0.04     0.16   0.30  -0.09    -0.05  -0.07   0.01
   2   6     0.10   0.09  -0.09    -0.10  -0.08   0.09     0.01   0.11  -0.03
   3   1     0.27   0.34  -0.13    -0.20  -0.33   0.12     0.03   0.05  -0.02
   4   1    -0.40  -0.00  -0.02    -0.02   0.04  -0.03    -0.00  -0.03   0.01
   5   6     0.27   0.01   0.02     0.01  -0.18  -0.03     0.00   0.04  -0.01
   6   6    -0.02  -0.02   0.02     0.03   0.04   0.01     0.04   0.03   0.10
   7   6    -0.02   0.02  -0.02    -0.03   0.04   0.00    -0.05   0.03   0.11
   8   7    -0.05   0.01  -0.00    -0.00  -0.09   0.02    -0.01  -0.63   0.15
   9   6    -0.20   0.26  -0.06    -0.17   0.34  -0.11     0.05  -0.07   0.02
  10   6     0.08  -0.08   0.09     0.10  -0.09   0.11    -0.00   0.11  -0.03
  11   1     0.05  -0.14   0.03     0.14  -0.27   0.09    -0.03   0.07  -0.02
  12   1     0.23  -0.31   0.15     0.21  -0.36   0.16    -0.03   0.05  -0.02
  13   1     0.05   0.00  -0.00    -0.00  -0.04   0.11    -0.00   0.01   0.01
  14   6    -0.03   0.02  -0.04    -0.05   0.02  -0.05    -0.05  -0.00  -0.03
  15   6    -0.04  -0.02   0.04     0.05   0.02  -0.04     0.06  -0.00  -0.03
  16   1     0.07   0.16  -0.03    -0.15  -0.25   0.07     0.03   0.07  -0.01
  17   8     0.01  -0.01   0.00     0.00   0.10  -0.03     0.01   0.50  -0.11
  18   1     0.01  -0.02   0.01     0.01  -0.03   0.02     0.02  -0.05   0.07
  19   1     0.01  -0.03   0.01     0.02  -0.03   0.01     0.07   0.00   0.03
  20   1     0.02   0.00   0.04     0.03   0.01   0.04     0.10   0.00   0.05
  21   1     0.01  -0.03   0.00     0.01  -0.06  -0.01     0.00  -0.10  -0.14
  22   1     0.03   0.00   0.04     0.05   0.00  -0.02     0.10  -0.01  -0.17
  23   1     0.02  -0.01  -0.02     0.03  -0.05  -0.05     0.09  -0.08  -0.09
  24   1     0.01   0.03  -0.01    -0.02  -0.02   0.01    -0.08  -0.00   0.02
  25   1     0.01   0.02  -0.01    -0.01  -0.03   0.01    -0.03  -0.05   0.07
  26   1     0.02  -0.01  -0.04    -0.03   0.01   0.03    -0.11   0.00   0.04
  27   1     0.02   0.01   0.03    -0.02  -0.05  -0.05    -0.08  -0.06  -0.09
  28   1     0.04  -0.00  -0.03    -0.04   0.00  -0.03    -0.07  -0.01  -0.16
  29   1     0.01   0.03  -0.00    -0.01  -0.05  -0.01     0.01  -0.09  -0.12
                     49                     50                     51
                        a                      a                      a 
 Frequencies --  1386.7828              1391.4135              1406.1309
 Red. masses --     3.0578                 3.2013                 2.9299
 Frc consts  --     0.0000                 0.0000                 0.0000
 IR Inten    --     0.5290                13.5388                 8.7335
 Raman Activ --     0.0000                 0.0000                 0.0000
 Depolar     --     0.0000                 0.0000                 0.0000
 Atom AN      X      Y      Z        X      Y      Z        X      Y      Z
   1   6     0.00  -0.01  -0.02    -0.00   0.01   0.01     0.03   0.03  -0.01
   2   6    -0.02  -0.01   0.02     0.01  -0.01  -0.01    -0.02  -0.01  -0.00
   3   1    -0.00   0.02  -0.01    -0.00  -0.01   0.01    -0.05  -0.02   0.01
   4   1    -0.06   0.00  -0.00    -0.00  -0.03   0.01    -0.00  -0.00  -0.00
   5   6     0.03  -0.00   0.00     0.00   0.00  -0.02     0.02   0.00   0.00
   6   6    -0.06  -0.09  -0.22     0.05   0.08   0.18    -0.04  -0.06  -0.14
   7   6    -0.09   0.09   0.21    -0.07   0.08   0.17    -0.06   0.06   0.14
   8   7     0.02   0.02  -0.00     0.00   0.10  -0.02     0.03   0.01  -0.00
   9   6    -0.00   0.01   0.01    -0.00   0.01   0.01     0.02  -0.03   0.02
  10   6    -0.01  -0.00  -0.02    -0.01  -0.01  -0.01    -0.02   0.01   0.00
  11   1    -0.01  -0.01  -0.02     0.00  -0.01  -0.00    -0.03   0.02  -0.04
  12   1    -0.00  -0.02   0.01     0.00  -0.01   0.01    -0.05   0.02  -0.01
  13   1    -0.01  -0.00   0.00    -0.00  -0.00   0.06    -0.03   0.00  -0.00
  14   6     0.11  -0.05   0.12     0.14  -0.06   0.15    -0.16   0.08  -0.17
  15   6     0.12   0.05  -0.11    -0.16  -0.06   0.14    -0.17  -0.08   0.14
  16   1    -0.01   0.00   0.02    -0.00  -0.01  -0.00    -0.03  -0.02   0.04
  17   8    -0.00  -0.02   0.00    -0.00  -0.08   0.02     0.00  -0.01   0.00
  18   1    -0.06   0.12  -0.17    -0.08   0.16  -0.21     0.10  -0.20   0.24
  19   1    -0.16   0.08  -0.09    -0.19   0.10  -0.11     0.21  -0.12   0.12
  20   1    -0.16  -0.02  -0.15    -0.21  -0.02  -0.19     0.24   0.03   0.22
  21   1     0.00  -0.16  -0.26     0.01  -0.14  -0.19     0.01  -0.12  -0.18
  22   1     0.14  -0.01  -0.28     0.11  -0.01  -0.24     0.10  -0.01  -0.20
  23   1     0.16  -0.17  -0.17     0.12  -0.16  -0.14     0.10  -0.12  -0.11
  24   1    -0.16  -0.08   0.07     0.21   0.10  -0.09     0.21   0.11  -0.09
  25   1    -0.08  -0.11   0.16     0.11   0.16  -0.20     0.13   0.19  -0.22
  26   1    -0.16   0.02   0.12     0.23  -0.03  -0.16     0.26  -0.03  -0.18
  27   1     0.15   0.17   0.19    -0.11  -0.15  -0.15     0.09   0.11   0.12
  28   1     0.10   0.01   0.30    -0.08  -0.01  -0.25     0.07   0.01   0.21
  29   1    -0.02   0.17   0.26     0.01  -0.14  -0.19    -0.01   0.12   0.17
                     52                     53                     54
                        a                      a                      a 
 Frequencies --  1415.7071              1469.0885              1473.9074
 Red. masses --     5.8686                 1.6764                 1.6523
 Frc consts  --     0.0000                 0.0000                 0.0000
 IR Inten    --     2.8510                 0.7499                 0.8328
 Raman Activ --     0.0000                 0.0000                 0.0000
 Depolar     --     0.0000                 0.0000                 0.0000
 Atom AN      X      Y      Z        X      Y      Z        X      Y      Z
   1   6    -0.01  -0.03   0.02     0.07  -0.06  -0.04     0.05  -0.03  -0.03
   2   6     0.01  -0.04   0.01     0.02  -0.00   0.02     0.01   0.01   0.03
   3   1     0.05   0.03  -0.01    -0.19   0.10  -0.05    -0.15   0.06  -0.03
   4   1    -0.00  -0.04   0.01    -0.01  -0.00   0.00    -0.00  -0.13   0.04
   5   6     0.00   0.03  -0.01    -0.00   0.00  -0.00     0.00   0.03  -0.06
   6   6     0.04   0.08   0.15    -0.00  -0.09   0.05    -0.03  -0.06   0.03
   7   6    -0.06   0.08   0.14     0.01   0.09  -0.04     0.02  -0.06   0.04
   8   7     0.01   0.38  -0.09    -0.01  -0.00  -0.00     0.00  -0.00  -0.00
   9   6     0.01  -0.03   0.02     0.06   0.06   0.04    -0.05  -0.04  -0.04
  10   6    -0.01  -0.04   0.01     0.02   0.00  -0.01    -0.01   0.01   0.03
  11   1    -0.02   0.02  -0.03    -0.03  -0.11  -0.17     0.03   0.09   0.15
  12   1    -0.04   0.03  -0.02    -0.18  -0.09   0.02     0.16   0.06  -0.01
  13   1    -0.00   0.01   0.03     0.01  -0.00   0.00    -0.01  -0.00   0.15
  14   6    -0.11   0.07  -0.13     0.01  -0.07  -0.06    -0.02   0.09   0.09
  15   6     0.13   0.07  -0.12     0.00   0.08   0.06     0.01   0.08   0.09
  16   1     0.03   0.02  -0.03    -0.05   0.12   0.18    -0.04   0.08   0.13
  17   8    -0.01  -0.30   0.06     0.00   0.00   0.00    -0.00  -0.00   0.00
  18   1     0.08  -0.15   0.17    -0.07   0.24   0.18     0.10  -0.33  -0.23
  19   1     0.14  -0.11   0.09     0.20   0.07   0.05    -0.26  -0.04  -0.08
  20   1     0.17   0.02   0.17    -0.18  -0.02   0.01     0.26   0.02  -0.06
  21   1     0.01  -0.13  -0.16     0.07  -0.21   0.21    -0.05   0.19  -0.12
  22   1     0.09  -0.00  -0.21     0.09  -0.00  -0.10    -0.15   0.01   0.03
  23   1     0.10  -0.14  -0.12    -0.22  -0.13   0.07     0.14   0.04  -0.06
  24   1    -0.16  -0.11   0.08     0.22  -0.07  -0.02     0.25  -0.04  -0.04
  25   1    -0.10  -0.16   0.17    -0.05  -0.26  -0.20    -0.06  -0.31  -0.22
  26   1    -0.20   0.03   0.15    -0.19   0.02  -0.03    -0.24   0.02  -0.08
  27   1    -0.09  -0.14  -0.13    -0.21   0.13  -0.11    -0.11   0.02  -0.07
  28   1    -0.07  -0.00  -0.23     0.11   0.00   0.11     0.14   0.00   0.04
  29   1     0.01  -0.13  -0.17     0.11   0.23  -0.20     0.07   0.18  -0.10
                     55                     56                     57
                        a                      a                      a 
 Frequencies --  1482.0021              1483.6745              1486.9922
 Red. masses --     1.6504                 1.7431                 1.7210
 Frc consts  --     0.0000                 0.0000                 0.0000
 IR Inten    --     0.0552                 0.0409                 0.9298
 Raman Activ --     0.0000                 0.0000                 0.0000
 Depolar     --     0.0000                 0.0000                 0.0000
 Atom AN      X      Y      Z        X      Y      Z        X      Y      Z
   1   6    -0.06   0.05   0.02     0.10  -0.08  -0.05     0.04  -0.01  -0.02
   2   6     0.01  -0.02  -0.01     0.01  -0.04  -0.02    -0.01  -0.04  -0.01
   3   1     0.17  -0.07   0.03    -0.29   0.17  -0.08    -0.13   0.06  -0.03
   4   1    -0.05   0.00  -0.00     0.01  -0.01   0.00    -0.01  -0.34   0.10
   5   6     0.02  -0.00   0.00    -0.00   0.00  -0.00     0.01   0.08  -0.13
   6   6     0.11  -0.07  -0.00     0.01  -0.01   0.03    -0.08   0.01   0.02
   7   6     0.12   0.06   0.02     0.02   0.01  -0.03     0.09  -0.01   0.05
   8   7    -0.01  -0.00  -0.00    -0.01   0.00  -0.00    -0.00  -0.00  -0.00
   9   6    -0.05  -0.04  -0.03     0.09   0.08   0.06    -0.03  -0.00  -0.03
  10   6     0.01   0.01   0.01     0.01   0.04   0.02     0.02  -0.05  -0.00
  11   1     0.03   0.08   0.15    -0.05  -0.16  -0.27     0.03   0.05   0.10
  12   1     0.16   0.06  -0.01    -0.28  -0.15   0.04     0.11   0.05  -0.01
  13   1    -0.01   0.00  -0.00     0.01  -0.00   0.01    -0.02   0.00   0.37
  14   6    -0.06  -0.03   0.05    -0.02   0.06   0.08    -0.03  -0.07  -0.04
  15   6    -0.05   0.02  -0.05    -0.01  -0.07  -0.09     0.03  -0.07  -0.02
  16   1     0.05  -0.09  -0.15    -0.09   0.17   0.28    -0.04   0.06   0.11
  17   8     0.00   0.00  -0.00    -0.00   0.00  -0.00     0.00   0.01   0.00
  18   1     0.03  -0.09   0.04     0.08  -0.26  -0.18    -0.04   0.17   0.21
  19   1     0.02   0.18  -0.06    -0.21   0.00  -0.08     0.22   0.17   0.02
  20   1     0.16  -0.00  -0.17     0.22   0.01  -0.07    -0.08  -0.01  -0.09
  21   1     0.01   0.06   0.18     0.02  -0.03   0.09    -0.04   0.22  -0.00
  22   1    -0.26   0.03  -0.25    -0.01   0.00  -0.03    -0.31   0.03  -0.10
  23   1    -0.20  -0.33  -0.03    -0.08  -0.05   0.03     0.00  -0.16  -0.07
  24   1     0.00  -0.18   0.06    -0.24   0.01   0.05    -0.18   0.15  -0.01
  25   1     0.04   0.09  -0.03     0.06   0.28   0.20     0.01   0.14   0.18
  26   1     0.14   0.00   0.19     0.22  -0.01   0.10     0.06  -0.01  -0.08
  27   1    -0.19   0.33  -0.02    -0.08   0.04  -0.04     0.05  -0.17  -0.03
  28   1    -0.26  -0.02   0.21     0.00   0.00   0.03     0.26   0.02  -0.08
  29   1     0.04  -0.03  -0.19     0.03   0.04  -0.08     0.02   0.15   0.05
                     58                     59                     60
                        a                      a                      a 
 Frequencies --  1488.1078              1492.0388              1497.3858
 Red. masses --     1.7033                 1.6289                 1.8637
 Frc consts  --     0.0000                 0.0000                 0.0000
 IR Inten    --     3.9215                 4.9410                 0.8498
 Raman Activ --     0.0000                 0.0000                 0.0000
 Depolar     --     0.0000                 0.0000                 0.0000
 Atom AN      X      Y      Z        X      Y      Z        X      Y      Z
   1   6    -0.05   0.08   0.03    -0.04   0.03   0.03     0.12  -0.09  -0.06
   2   6    -0.03  -0.06   0.01     0.00   0.02   0.02     0.02   0.01  -0.02
   3   1     0.15  -0.10   0.05     0.12  -0.08   0.04    -0.33   0.16  -0.08
   4   1     0.01  -0.03   0.01     0.00   0.14  -0.04     0.00   0.10  -0.03
   5   6    -0.00   0.01  -0.01    -0.00  -0.03   0.05    -0.00  -0.05   0.03
   6   6    -0.08  -0.07   0.07    -0.06   0.06  -0.03     0.03   0.06  -0.04
   7   6    -0.05   0.08  -0.07     0.07   0.06  -0.02    -0.03   0.06  -0.05
   8   7     0.01  -0.00   0.00     0.00   0.01  -0.01     0.00   0.03  -0.01
   9   6    -0.05  -0.07  -0.04     0.04   0.03   0.03    -0.12  -0.09  -0.08
  10   6    -0.02   0.05  -0.02    -0.00   0.02   0.02    -0.03   0.01  -0.02
  11   1     0.03   0.12   0.18    -0.03  -0.07  -0.13     0.07   0.19   0.33
  12   1     0.18   0.11  -0.03    -0.13  -0.08   0.02     0.36   0.16  -0.04
  13   1    -0.02   0.00   0.03     0.01   0.00  -0.15     0.01  -0.01  -0.10
  14   6     0.02   0.04   0.02    -0.08  -0.03   0.08    -0.03  -0.03   0.02
  15   6     0.03  -0.05  -0.02     0.07  -0.03   0.09     0.01  -0.02   0.01
  16   1     0.04  -0.11  -0.16     0.04  -0.07  -0.12    -0.10   0.18   0.31
  17   8    -0.00   0.00  -0.00    -0.00  -0.01   0.00    -0.00  -0.03   0.01
  18   1     0.02  -0.09  -0.12     0.06  -0.17   0.03     0.01  -0.01   0.07
  19   1    -0.12  -0.11  -0.01    -0.02   0.26  -0.10     0.06   0.12  -0.02
  20   1     0.04   0.01   0.07     0.26   0.00  -0.26     0.06  -0.00  -0.10
  21   1     0.08  -0.33   0.15     0.04  -0.06   0.18     0.06  -0.25   0.11
  22   1     0.30  -0.03  -0.00    -0.08   0.01  -0.15     0.21  -0.02  -0.01
  23   1    -0.17   0.03   0.11    -0.20  -0.21   0.02    -0.14   0.00   0.08
  24   1    -0.16   0.13  -0.01     0.02   0.28  -0.10    -0.03   0.04  -0.01
  25   1     0.01   0.13   0.16    -0.07  -0.17   0.04    -0.01   0.00   0.03
  26   1     0.07  -0.01  -0.07    -0.22  -0.00  -0.30    -0.02  -0.00  -0.03
  27   1    -0.16  -0.05  -0.15     0.18  -0.21   0.05     0.12  -0.02   0.09
  28   1     0.36   0.02   0.03     0.10   0.01  -0.14    -0.17  -0.01  -0.04
  29   1     0.13   0.37  -0.14    -0.06  -0.05   0.17    -0.08  -0.21   0.10
                     61                     62                     63
                        a                      a                      a 
 Frequencies --  1498.5015              1501.2919              1507.2218
 Red. masses --     1.6013                 1.7197                 1.8020
 Frc consts  --     0.0000                 0.0000                 0.0000
 IR Inten    --     7.0524                 8.8767                 0.0814
 Raman Activ --     0.0000                 0.0000                 0.0000
 Depolar     --     0.0000                 0.0000                 0.0000
 Atom AN      X      Y      Z        X      Y      Z        X      Y      Z
   1   6     0.01  -0.00  -0.01     0.02   0.01  -0.01     0.04  -0.03  -0.01
   2   6     0.05  -0.03   0.01     0.02  -0.06   0.02    -0.04   0.02  -0.01
   3   1    -0.05   0.01  -0.01    -0.05  -0.00  -0.00    -0.08   0.05  -0.02
   4   1    -0.01   0.01  -0.00     0.01   0.31  -0.10     0.01   0.40  -0.12
   5   6    -0.00  -0.00   0.00    -0.01  -0.09   0.11    -0.01  -0.10   0.15
   6   6     0.07  -0.01  -0.02     0.04  -0.07   0.06    -0.09   0.02   0.04
   7   6     0.07   0.02   0.02    -0.05  -0.07   0.05     0.08   0.01   0.06
   8   7    -0.02   0.00  -0.00     0.00   0.04  -0.01    -0.00  -0.04   0.01
   9   6    -0.02  -0.02  -0.01    -0.02   0.01  -0.01    -0.04  -0.03  -0.02
  10   6     0.05   0.04  -0.01    -0.02  -0.06   0.01     0.04   0.02  -0.00
  11   1     0.01  -0.00   0.03     0.01   0.02   0.03     0.02   0.03   0.09
  12   1     0.02   0.03  -0.01     0.05  -0.00   0.01     0.09   0.05  -0.01
  13   1    -0.01  -0.00  -0.01     0.02  -0.01  -0.31     0.02  -0.01  -0.41
  14   6     0.09   0.08  -0.06    -0.05  -0.06   0.00     0.03   0.03  -0.04
  15   6     0.07  -0.08   0.07     0.05  -0.07   0.02    -0.03   0.03  -0.04
  16   1    -0.01   0.04   0.04    -0.01   0.02   0.03    -0.03   0.02   0.08
  17   8    -0.00  -0.00   0.00    -0.00  -0.02   0.01     0.00   0.02  -0.00
  18   1    -0.04   0.05  -0.19    -0.00   0.05   0.17    -0.03   0.05  -0.06
  19   1    -0.13  -0.39   0.09     0.14   0.22  -0.02    -0.03  -0.16   0.05
  20   1    -0.19   0.01   0.34     0.04  -0.01  -0.18    -0.10   0.00   0.15
  21   1    -0.01   0.09   0.10    -0.06   0.15  -0.25    -0.03   0.16   0.03
  22   1    -0.19   0.02  -0.15    -0.01  -0.00   0.13    -0.27   0.03  -0.17
  23   1    -0.09  -0.19  -0.03     0.27   0.17  -0.09    -0.03  -0.22  -0.08
  24   1    -0.11   0.37  -0.10    -0.14   0.25  -0.05     0.03  -0.18   0.06
  25   1    -0.06  -0.05   0.17    -0.02   0.05   0.18     0.04   0.05  -0.07
  26   1    -0.14  -0.01  -0.35    -0.03  -0.01  -0.21     0.09   0.01   0.18
  27   1    -0.05   0.18   0.03    -0.25   0.18  -0.12     0.05  -0.25  -0.07
  28   1    -0.23  -0.01   0.11    -0.01  -0.00   0.13     0.30   0.01  -0.15
  29   1    -0.01  -0.12  -0.07     0.10   0.14  -0.24     0.02   0.16   0.05
                     64                     65                     66
                        a                      a                      a 
 Frequencies --  2961.8813              2967.2132              2977.3144
 Red. masses --     1.8778                 1.8611                 1.8782
 Frc consts  --     0.0000                 0.0000                 0.0000
 IR Inten    --    16.2234                16.3885                37.8785
 Raman Activ --     0.0000                 0.0000                 0.0000
 Depolar     --     0.0000                 0.0000                 0.0000
 Atom AN      X      Y      Z        X      Y      Z        X      Y      Z
   1   6    -0.01  -0.01  -0.04    -0.05  -0.05  -0.24     0.06   0.00   0.11
   2   6    -0.00   0.00  -0.00    -0.00  -0.00  -0.01     0.00  -0.00   0.00
   3   1    -0.00   0.04   0.11    -0.03   0.29   0.78     0.02  -0.10  -0.25
   4   1    -0.01   0.05   0.17     0.02  -0.08  -0.26     0.01  -0.03  -0.18
   5   6     0.00  -0.06  -0.04    -0.00   0.11   0.06    -0.00   0.21   0.06
   6   6     0.00  -0.00   0.00     0.00  -0.00   0.00    -0.00   0.00  -0.00
   7   6     0.00   0.00  -0.00    -0.00   0.00  -0.00     0.00   0.00  -0.00
   8   7     0.00   0.00  -0.00     0.00  -0.00   0.00     0.00   0.00  -0.00
   9   6    -0.09   0.05   0.25    -0.01  -0.01  -0.00    -0.10  -0.02   0.07
  10   6    -0.00   0.00   0.01    -0.00  -0.00  -0.00    -0.00  -0.00   0.00
  11   1     0.25   0.11  -0.09     0.05   0.02  -0.03     0.36   0.14  -0.16
  12   1     0.06  -0.30  -0.82    -0.00   0.01   0.04    -0.01  -0.03  -0.07
  13   1     0.00   0.15  -0.01    -0.00  -0.31   0.01    -0.00  -0.74  -0.00
  14   6     0.00  -0.01  -0.01    -0.00   0.00   0.00     0.00  -0.00  -0.00
  15   6    -0.00   0.00  -0.00     0.00   0.01   0.01    -0.00  -0.00  -0.00
  16   1     0.05  -0.02   0.03     0.20  -0.09   0.09    -0.24   0.10  -0.14
  17   8    -0.00  -0.00  -0.00    -0.00   0.00   0.00    -0.00  -0.00   0.00
  18   1     0.00   0.00  -0.00    -0.00  -0.00   0.00    -0.01  -0.00   0.00
  19   1    -0.01   0.01   0.02     0.00  -0.00  -0.01    -0.00   0.00   0.01
  20   1    -0.00   0.01  -0.00    -0.00  -0.00   0.00     0.00   0.00  -0.00
  21   1    -0.01  -0.00   0.00    -0.00  -0.00  -0.00    -0.01  -0.00  -0.00
  22   1    -0.00  -0.00   0.00    -0.00   0.00  -0.00     0.00   0.00  -0.00
  23   1     0.00  -0.00   0.00     0.00  -0.00   0.01     0.01  -0.01   0.01
  24   1     0.00   0.00   0.00    -0.01  -0.01  -0.03     0.00   0.01   0.01
  25   1     0.00  -0.00  -0.00     0.00  -0.00   0.00     0.00  -0.00   0.00
  26   1    -0.00  -0.00   0.00    -0.00  -0.01   0.00    -0.00   0.01  -0.00
  27   1     0.00   0.00  -0.00     0.00   0.00  -0.00    -0.01  -0.01   0.01
  28   1    -0.00   0.00  -0.00    -0.00   0.01  -0.00    -0.00   0.00  -0.00
  29   1    -0.00   0.00  -0.00    -0.01   0.00  -0.00     0.01  -0.00   0.00
                     67                     68                     69
                        a                      a                      a 
 Frequencies --  2985.0795              2990.7653              3000.1857
 Red. masses --     1.6226                 1.5955                 1.5813
 Frc consts  --     0.0000                 0.0000                 0.0000
 IR Inten    --    56.2622                44.4618                45.3753
 Raman Activ --     0.0000                 0.0000                 0.0000
 Depolar     --     0.0000                 0.0000                 0.0000
 Atom AN      X      Y      Z        X      Y      Z        X      Y      Z
   1   6     0.03  -0.01   0.03     0.18  -0.11   0.02     0.04  -0.01   0.05
   2   6     0.00  -0.00   0.00     0.00  -0.00   0.00     0.00   0.00   0.00
   3   1     0.01  -0.02  -0.04     0.02   0.12   0.37     0.01  -0.02  -0.05
   4   1     0.01  -0.06  -0.19    -0.01   0.08   0.24     0.05  -0.28  -0.78
   5   6     0.00   0.09   0.05     0.01  -0.06  -0.06    -0.01  -0.04   0.21
   6   6     0.00   0.00  -0.00    -0.01   0.01   0.00     0.01   0.01  -0.01
   7   6    -0.01  -0.01  -0.00     0.00  -0.00   0.00    -0.01   0.01  -0.01
   8   7    -0.00  -0.00  -0.00    -0.00   0.00  -0.00    -0.00  -0.00  -0.00
   9   6     0.17   0.11   0.01     0.00  -0.01  -0.02    -0.03  -0.01   0.04
  10   6     0.00   0.00   0.00     0.00  -0.00  -0.00    -0.00   0.00   0.00
  11   1    -0.69  -0.26   0.33    -0.00  -0.00   0.00     0.12   0.04  -0.05
  12   1     0.06  -0.12  -0.36    -0.00   0.02   0.05     0.00  -0.02  -0.06
  13   1    -0.00  -0.28   0.00     0.00   0.12  -0.01    -0.00   0.42   0.04
  14   6    -0.01  -0.01  -0.00    -0.00   0.00   0.00     0.00  -0.00  -0.00
  15   6    -0.00  -0.00  -0.00    -0.01   0.01   0.00    -0.00  -0.00  -0.01
  16   1    -0.12   0.05  -0.07    -0.67   0.28  -0.43    -0.17   0.07  -0.11
  17   8     0.00   0.00  -0.00     0.00  -0.00   0.00     0.00  -0.00  -0.00
  18   1     0.03   0.01  -0.01     0.00   0.00  -0.00    -0.01  -0.00   0.00
  19   1    -0.01   0.01   0.02     0.00  -0.00  -0.00    -0.01   0.01   0.02
  20   1    -0.00   0.01  -0.00    -0.00  -0.00   0.00     0.00  -0.00  -0.00
  21   1     0.03   0.01  -0.00     0.01   0.00   0.00    -0.01   0.00  -0.00
  22   1     0.00   0.02  -0.00    -0.00  -0.00   0.00    -0.00  -0.01  -0.00
  23   1     0.00  -0.00   0.00    -0.01   0.01  -0.01     0.03  -0.02   0.05
  24   1     0.00   0.00   0.00    -0.01  -0.01  -0.02     0.00   0.01   0.02
  25   1     0.01  -0.00   0.00     0.04  -0.02   0.01     0.01  -0.00   0.00
  26   1    -0.00   0.00  -0.00    -0.00  -0.02   0.00    -0.00  -0.00  -0.00
  27   1    -0.01  -0.01   0.01     0.01   0.00  -0.01    -0.04  -0.02   0.04
  28   1    -0.00   0.00  -0.00    -0.00  -0.02   0.00     0.00  -0.02  -0.00
  29   1     0.01  -0.00   0.00     0.03  -0.01   0.01     0.01  -0.00   0.00
                     70                     71                     72
                        a                      a                      a 
 Frequencies --  3033.2916              3034.6559              3036.9553
 Red. masses --     1.8756                 1.8374                 1.7845
 Frc consts  --     0.0000                 0.0000                 0.0000
 IR Inten    --     2.5588                35.7772                30.2762
 Raman Activ --     0.0000                 0.0000                 0.0000
 Depolar     --     0.0000                 0.0000                 0.0000
 Atom AN      X      Y      Z        X      Y      Z        X      Y      Z
   1   6     0.00  -0.00  -0.00    -0.00   0.00   0.01    -0.00  -0.00  -0.01
   2   6     0.00  -0.00  -0.00    -0.00   0.00   0.00    -0.00  -0.00  -0.00
   3   1     0.00   0.01   0.02     0.00  -0.01  -0.02     0.00   0.01   0.01
   4   1    -0.00   0.00   0.00     0.00  -0.01  -0.03    -0.00   0.00   0.00
   5   6     0.00  -0.00  -0.00    -0.00   0.00   0.01    -0.00  -0.00  -0.00
   6   6     0.10   0.01  -0.01    -0.08  -0.00  -0.01    -0.17   0.04   0.00
   7   6     0.09  -0.01   0.02     0.11  -0.00   0.01    -0.14  -0.03  -0.03
   8   7     0.00   0.00   0.00     0.00  -0.00  -0.00     0.00  -0.00  -0.00
   9   6     0.00   0.00   0.00     0.00   0.00   0.01    -0.00   0.00   0.00
  10   6     0.00   0.00   0.00     0.00   0.00   0.00    -0.00   0.00   0.00
  11   1    -0.01  -0.00   0.00    -0.00  -0.00   0.00     0.01   0.00  -0.00
  12   1     0.00  -0.00  -0.01     0.00  -0.01  -0.02     0.00  -0.01  -0.01
  13   1    -0.00   0.00  -0.00    -0.00   0.00   0.00     0.00  -0.00   0.00
  14   6    -0.09   0.05   0.12    -0.10   0.06   0.14     0.00   0.05   0.07
  15   6    -0.08  -0.06  -0.16     0.07   0.05   0.13     0.02  -0.05  -0.07
  16   1    -0.01   0.00  -0.01     0.00  -0.00   0.00     0.01  -0.01   0.01
  17   8     0.00  -0.00   0.00     0.00   0.00  -0.00     0.00   0.00   0.00
  18   1     0.12   0.06  -0.00     0.14   0.07  -0.01    -0.14  -0.05   0.03
  19   1     0.19  -0.17  -0.45     0.21  -0.19  -0.51     0.13  -0.11  -0.30
  20   1    -0.01  -0.06   0.02    -0.01  -0.08   0.02    -0.00  -0.00   0.01
  21   1    -0.28  -0.07   0.02    -0.37  -0.09   0.03     0.45   0.10  -0.04
  22   1     0.02   0.04   0.00     0.02   0.07   0.00    -0.01   0.09  -0.01
  23   1    -0.05   0.05  -0.10    -0.02   0.03  -0.05     0.07  -0.08   0.14
  24   1     0.15   0.21   0.55    -0.13  -0.18  -0.47     0.10   0.12   0.34
  25   1     0.14  -0.07   0.02    -0.12   0.06  -0.02    -0.18   0.06  -0.06
  26   1    -0.01   0.07  -0.02     0.01  -0.07   0.02     0.00   0.00  -0.01
  27   1    -0.07  -0.05   0.10     0.01   0.02  -0.03     0.10   0.08  -0.14
  28   1     0.02  -0.06   0.00    -0.02   0.08  -0.00    -0.02  -0.08   0.01
  29   1    -0.30   0.09  -0.07     0.29  -0.08   0.06     0.52  -0.15   0.12
                     73                     74                     75
                        a                      a                      a 
 Frequencies --  3037.7334              3043.1835              3045.3290
 Red. masses --     1.6925                 1.9237                 1.7955
 Frc consts  --     0.0000                 0.0000                 0.0000
 IR Inten    --    26.6585                 1.2698                48.8657
 Raman Activ --     0.0000                 0.0000                 0.0000
 Depolar     --     0.0000                 0.0000                 0.0000
 Atom AN      X      Y      Z        X      Y      Z        X      Y      Z
   1   6    -0.00  -0.00  -0.01    -0.01   0.00  -0.00    -0.01   0.00  -0.00
   2   6    -0.00  -0.00  -0.00     0.00   0.01  -0.00    -0.01   0.01  -0.00
   3   1    -0.00   0.01   0.02    -0.00   0.00  -0.00    -0.00  -0.00  -0.01
   4   1    -0.00   0.00   0.01    -0.00   0.00   0.01    -0.00   0.01   0.03
   5   6     0.00  -0.00  -0.00    -0.00   0.00  -0.00     0.00   0.00  -0.01
   6   6    -0.13   0.04  -0.02     0.02   0.21  -0.11    -0.06   0.12  -0.01
   7   6     0.15   0.04   0.00     0.00  -0.14   0.08    -0.01   0.16  -0.09
   8   7     0.00  -0.00  -0.00     0.00   0.00  -0.00    -0.00   0.00  -0.00
   9   6     0.00  -0.00  -0.01    -0.00  -0.00   0.00     0.00   0.00  -0.00
  10   6     0.00  -0.00  -0.00    -0.00  -0.00   0.00    -0.00   0.00  -0.00
  11   1    -0.01  -0.01   0.00     0.02   0.01  -0.01    -0.01  -0.01   0.01
  12   1    -0.00   0.01   0.02    -0.00  -0.00   0.00    -0.00   0.00   0.00
  13   1     0.00   0.00  -0.00    -0.00  -0.00  -0.00     0.00  -0.02  -0.00
  14   6    -0.01  -0.06  -0.09    -0.01   0.00  -0.01    -0.01  -0.02   0.01
  15   6     0.02  -0.06  -0.07    -0.02  -0.00   0.02    -0.13   0.05  -0.02
  16   1     0.01  -0.00   0.00     0.02  -0.01   0.01     0.03  -0.01   0.02
  17   8    -0.00  -0.00   0.00    -0.00  -0.00   0.00     0.00  -0.00   0.00
  18   1     0.18   0.07  -0.04     0.04   0.02  -0.01     0.01   0.00   0.00
  19   1    -0.16   0.13   0.36    -0.03   0.02   0.06     0.02  -0.02  -0.05
  20   1     0.00   0.02  -0.01     0.00  -0.05  -0.00    -0.00   0.09   0.00
  21   1    -0.54  -0.13   0.04     0.13   0.01   0.00    -0.12  -0.01  -0.00
  22   1     0.02  -0.03   0.00     0.05   0.38   0.00    -0.05  -0.43  -0.00
  23   1    -0.01   0.03  -0.06    -0.19   0.12  -0.28     0.21  -0.14   0.31
  24   1     0.09   0.11   0.31    -0.03  -0.04  -0.10    -0.04  -0.02  -0.08
  25   1    -0.17   0.06  -0.06     0.09  -0.04   0.03     0.51  -0.21   0.15
  26   1     0.00   0.02  -0.01     0.00   0.08   0.00    -0.01   0.07  -0.01
  27   1     0.01   0.02  -0.03    -0.30  -0.14   0.33     0.01   0.03  -0.02
  28   1    -0.02  -0.01  -0.00     0.04  -0.58   0.01     0.02  -0.42   0.02
  29   1     0.46  -0.13   0.10     0.17  -0.02   0.02     0.17  -0.03   0.04
                     76                     77                     78
                        a                      a                      a 
 Frequencies --  3045.4605              3046.0859              3046.8024
 Red. masses --     1.7440                 1.7073                 1.3544
 Frc consts  --     0.0000                 0.0000                 0.0000
 IR Inten    --    73.8883                 2.1670                20.7575
 Raman Activ --     0.0000                 0.0000                 0.0000
 Depolar     --     0.0000                 0.0000                 0.0000
 Atom AN      X      Y      Z        X      Y      Z        X      Y      Z
   1   6     0.00  -0.00  -0.00     0.00  -0.00   0.00     0.00  -0.00   0.00
   2   6     0.01   0.00  -0.00     0.01   0.00   0.00     0.00   0.00   0.00
   3   1     0.00   0.00   0.01     0.00   0.00   0.01     0.00   0.00  -0.00
   4   1    -0.00   0.01   0.02    -0.00   0.00   0.01     0.00  -0.00  -0.00
   5   6     0.00   0.00  -0.01     0.00  -0.00  -0.00    -0.00   0.00   0.00
   6   6     0.07   0.07  -0.06     0.04   0.07   0.01    -0.01   0.05   0.08
   7   6     0.05   0.13   0.01    -0.07   0.06  -0.04     0.02  -0.07  -0.07
   8   7     0.00   0.00  -0.00    -0.00   0.00  -0.00    -0.00  -0.00   0.00
   9   6     0.01   0.00  -0.00    -0.00  -0.00  -0.00     0.00   0.00  -0.00
  10   6     0.00   0.01   0.00    -0.01  -0.00   0.00     0.00  -0.00  -0.00
  11   1    -0.03  -0.01   0.01     0.02   0.01  -0.01    -0.02  -0.01   0.01
  12   1     0.00  -0.00  -0.01    -0.00   0.00   0.01     0.00  -0.00  -0.00
  13   1    -0.00  -0.01  -0.00     0.00  -0.00  -0.00    -0.00   0.00   0.00
  14   6     0.12   0.05   0.00    -0.16  -0.07   0.02     0.08   0.04  -0.02
  15   6     0.11  -0.06   0.03     0.11  -0.05   0.04     0.04  -0.02   0.02
  16   1    -0.01   0.00  -0.01    -0.02   0.01  -0.01    -0.01   0.01  -0.01
  17   8    -0.00  -0.00   0.00     0.00   0.00  -0.00     0.00  -0.00   0.00
  18   1    -0.49  -0.20   0.08     0.60   0.25  -0.09    -0.30  -0.12   0.04
  19   1     0.05  -0.03  -0.09    -0.02  -0.01   0.00    -0.00   0.02   0.03
  20   1     0.01   0.06  -0.00    -0.02   0.01   0.01     0.01  -0.02  -0.00
  21   1    -0.12  -0.01   0.01     0.17   0.05  -0.02    -0.29  -0.08   0.01
  22   1    -0.05  -0.48   0.01    -0.03  -0.20  -0.00     0.06   0.47  -0.02
  23   1    -0.02   0.04  -0.04     0.10  -0.07   0.16     0.18  -0.14   0.27
  24   1     0.01  -0.01   0.00     0.01  -0.02  -0.02    -0.00  -0.01  -0.03
  25   1    -0.42   0.17  -0.12    -0.42   0.17  -0.12    -0.16   0.07  -0.05
  26   1     0.02   0.05   0.00     0.02   0.01   0.01     0.01   0.02   0.00
  27   1    -0.21  -0.11   0.25     0.03   0.02  -0.02     0.25   0.14  -0.28
  28   1     0.02  -0.18  -0.00     0.03  -0.34   0.02     0.02  -0.40   0.03
  29   1    -0.05   0.03  -0.02    -0.21   0.07  -0.05    -0.24   0.07  -0.04
                     79                     80                     81
                        a                      a                      a 
 Frequencies --  3052.2002              3060.5856              3061.4963
 Red. masses --     1.4914                 1.6879                 1.6977
 Frc consts  --     0.0000                 0.0000                 0.0000
 IR Inten    --    48.4886                 4.2974                20.8705
 Raman Activ --     0.0000                 0.0000                 0.0000
 Depolar     --     0.0000                 0.0000                 0.0000
 Atom AN      X      Y      Z        X      Y      Z        X      Y      Z
   1   6     0.00   0.00   0.01     0.00  -0.00  -0.00     0.00  -0.00  -0.00
   2   6    -0.00   0.00   0.01    -0.00  -0.01   0.00    -0.00  -0.00   0.00
   3   1     0.00  -0.01  -0.02     0.00   0.00   0.01     0.00   0.00   0.01
   4   1     0.00  -0.03  -0.07     0.00  -0.00  -0.00     0.00  -0.00  -0.01
   5   6    -0.00   0.01   0.02     0.00  -0.00   0.00    -0.00  -0.00   0.00
   6   6    -0.09   0.01   0.11    -0.01  -0.03   0.01    -0.00  -0.02   0.01
   7   6     0.08   0.00   0.13    -0.01   0.01  -0.01     0.01  -0.03   0.01
   8   7     0.00   0.00  -0.00    -0.00  -0.00   0.00     0.00  -0.00   0.00
   9   6    -0.00   0.00   0.00     0.00   0.00   0.00    -0.00  -0.00  -0.00
  10   6     0.00   0.00   0.01    -0.00   0.00  -0.00     0.00  -0.01   0.00
  11   1     0.00   0.00  -0.00    -0.00  -0.00   0.00     0.01   0.00  -0.01
  12   1     0.00  -0.01  -0.02     0.00  -0.00  -0.00    -0.00   0.00   0.01
  13   1    -0.00   0.00   0.00    -0.00   0.00   0.00     0.00   0.01   0.00
  14   6     0.01   0.01   0.00    -0.00   0.11  -0.01    -0.01  -0.22   0.02
  15   6    -0.01   0.01   0.00    -0.00  -0.22   0.03     0.00  -0.11   0.02
  16   1    -0.00   0.00  -0.00    -0.01   0.00  -0.01    -0.01   0.00  -0.00
  17   8    -0.00  -0.00   0.00     0.00   0.00  -0.00    -0.00   0.00  -0.00
  18   1    -0.04  -0.02   0.01     0.00   0.02  -0.00     0.02  -0.02  -0.00
  19   1     0.01  -0.00  -0.01    -0.01   0.02   0.03     0.03  -0.06  -0.07
  20   1     0.00  -0.01   0.00     0.02  -0.42   0.01    -0.04   0.85  -0.02
  21   1     0.07   0.01   0.01     0.02   0.01  -0.00    -0.01  -0.01   0.00
  22   1    -0.02  -0.28   0.02    -0.01  -0.03  -0.00     0.01   0.11   0.00
  23   1    -0.32   0.25  -0.50     0.01  -0.01   0.02    -0.03   0.02  -0.05
  24   1    -0.01  -0.00  -0.01    -0.02  -0.06  -0.07    -0.01  -0.03  -0.04
  25   1     0.04  -0.01   0.01    -0.01  -0.02  -0.00    -0.02  -0.00  -0.01
  26   1    -0.00  -0.00  -0.00     0.04   0.86  -0.02     0.02   0.42  -0.01
  27   1     0.37   0.22  -0.43     0.03   0.02  -0.04     0.02   0.01  -0.02
  28   1     0.00  -0.28   0.03    -0.01   0.09  -0.00    -0.00   0.06  -0.00
  29   1    -0.05   0.01   0.00     0.02  -0.01   0.01    -0.00  -0.00   0.00
