29
 energy: -35.391403569328 gnorm: 0.000883964329 xtb: 6.7.1 (edcfbbe)
C           -3.58211934101671        2.04730971585708       -0.02541474528303
C           -3.65634856372188        0.51842307414414        0.01281720067005
H           -3.62493635792020        2.43191753394644        0.99641003693137
H           -2.24370994860572        2.22287674526541       -1.71511686899060
C           -2.30522940892812        2.55446270728162       -0.67811925828875
C           -4.05150556946753       -0.05466925840714       -1.35832672888208
C           -0.51770505556828       -0.07168516216257       -1.14512780878069
N           -2.38672010791084       -0.07911330746538        0.42098983066321
C           -1.12299699580987        2.03403656165144        0.12516763281201
C           -1.07118705945854        0.50398918635904        0.16976313252827
H           -0.18208797113437        2.39639993904314       -0.29363927139406
H           -1.20163002463603        2.41799842475238        1.14577317126645
H           -2.29973035978822        3.64614942454236       -0.68158252498846
C           -0.15863954643537        0.06117676980181        1.32107127953624
C           -4.70656748511740        0.08744045570817        1.04472334845761
H           -4.45927947331326        2.42019994616546       -0.55654073944169
O           -2.41084137407206       -1.33032003848239        0.69630589047067
H            0.84093359419841        0.46344330931071        1.18201624647194
H           -0.55301975089037        0.41387633039685        2.27147284482083
H           -0.11051318586759       -1.02333786174783        1.35345840516846
H            0.53864339806395        0.16578462248846       -1.24094031968266
H           -0.63634068954581       -1.15244875114916       -1.13617905043538
H           -1.04302669665514        0.32959647151971       -2.00714270109340
H           -4.43774420131250        0.45470362103655        2.03267895279402
H           -5.68162028418696        0.48285080674069        0.77384271566434
H           -4.75527584025091       -0.99680187097597        1.08578249984022
H           -3.39638339489301        0.30809050920256       -2.14542660914236
H           -3.98262561734489       -1.13921511735969       -1.32124135661399
H           -5.07361823904600        0.22531988881629       -1.59969548538930
