 Entering Gaussian System
 *********************************************
 Gaussian 98:
 frequency output generated by the xtb code
 *********************************************
                         Standard orientation:
 --------------------------------------------------------------------
  Center     Atomic     Atomic              Coordinates (Angstroms)
  Number     Number      Type              X           Y           Z
 --------------------------------------------------------------------
    1          6             0       -3.582109    2.047329   -0.025406
    2          6             0       -3.656346    0.518442    0.012829
    3          1             0       -3.624920    2.431938    0.996419
    4          1             0       -2.243705    2.222886   -1.715113
    5          6             0       -2.305219    2.554474   -0.678116
    6          6             0       -4.051511   -0.054650   -1.358313
    7          6             0       -0.517709   -0.071684   -1.145126
    8          7             0       -2.386719   -0.079100    0.420998
    9          6             0       -1.122986    2.034043    0.125168
   10          6             0       -1.071184    0.503995    0.169766
   11          1             0       -0.182076    2.396401   -0.293643
   12          1             0       -1.201613    2.418007    1.145773
   13          1             0       -2.299714    3.646161   -0.681581
   14          6             0       -0.158635    0.061180    1.321072
   15          6             0       -4.706564    0.087467    1.044740
   16          1             0       -4.459269    2.420223   -0.556529
   17          8             0       -2.410846   -1.330306    0.696317
   18          1             0        0.840940    0.463441    1.182013
   19          1             0       -0.553010    0.413883    2.271474
   20          1             0       -0.110514   -1.023335    1.353461
   21          1             0        0.538640    0.165780   -1.240943
   22          1             0       -0.636351   -1.152448   -1.136175
   23          1             0       -1.043032    0.329598   -2.007140
   24          1             0       -4.437735    0.454730    2.032694
   25          1             0       -5.681616    0.482882    0.773862
   26          1             0       -4.755278   -0.996775    1.085801
   27          1             0       -3.396390    0.308105   -2.145415
   28          1             0       -3.982637   -1.139197   -1.321226
   29          1             0       -5.073623    0.225344   -1.599678
 --------------------------------------------------------------------
     1 basis functions        1 primitive gaussians
     1 alpha electrons        1 beta electrons
 
 Harmonic frequencies (cm**-1), IR intensities (km*mol⁻¹),
 Raman scattering activities (A**4/amu), Raman depolarization ratios,
 reduced masses (AMU), force constants (mDyne/A) and normal coordinates:
                      1                      2                      3
                        a                      a                      a 
 Frequencies --    59.4413               105.2398               167.8553
 Red. masses --    11.7102                 7.9974                 1.3371
 Frc consts  --     0.0000                 0.0000                 0.0000
 IR Inten    --     5.1853                 0.0304                 0.0378
 Raman Activ --     0.0000                 0.0000                 0.0000
 Depolar     --     0.0000                 0.0000                 0.0000
 Atom AN      X      Y      Z        X      Y      Z        X      Y      Z
   1   6     0.01   0.02  -0.04    -0.04  -0.01  -0.37     0.00  -0.01  -0.01
   2   6    -0.03   0.02   0.05     0.01  -0.01  -0.05     0.02  -0.01  -0.05
   3   1     0.02   0.03  -0.02    -0.13   0.06  -0.13    -0.01  -0.01  -0.00
   4   1     0.00  -0.06  -0.02     0.13   0.00   0.01     0.01   0.00   0.00
   5   6     0.01  -0.07  -0.12     0.15   0.00   0.01     0.01   0.00   0.00
   6   6    -0.27  -0.01   0.13    -0.07  -0.30   0.10    -0.05   0.06  -0.06
   7   6     0.25  -0.01   0.17    -0.05   0.30  -0.10    -0.01  -0.04   0.04
   8   7     0.01  -0.05  -0.19     0.00   0.00  -0.00     0.00  -0.01  -0.03
   9   6    -0.01   0.02  -0.04    -0.08   0.01   0.35     0.01   0.00   0.01
  10   6     0.02   0.02   0.05     0.00   0.01   0.05     0.01   0.00   0.03
  11   1     0.00   0.00  -0.01     0.01   0.05   0.22     0.00   0.00   0.01
  12   1    -0.01   0.03  -0.02    -0.14  -0.06   0.12    -0.00   0.00   0.00
  13   1     0.00  -0.02  -0.08     0.03   0.00   0.00     0.00   0.00   0.00
  14   6    -0.18   0.10   0.24     0.07  -0.23  -0.11     0.01   0.03   0.04
  15   6     0.15   0.09   0.26     0.07   0.22   0.12     0.04  -0.04  -0.03
  16   1     0.00   0.00  -0.01     0.04  -0.05  -0.22     0.00  -0.00  -0.01
  17   8     0.03  -0.14  -0.59    -0.04   0.00  -0.00    -0.03   0.01   0.05
  18   1    -0.04   0.01   0.11     0.02  -0.06  -0.03     0.06  -0.17  -0.10
  19   1    -0.09   0.06   0.04     0.04  -0.11  -0.00     0.12   0.19  -0.01
  20   1    -0.07   0.03   0.10     0.01  -0.07  -0.09    -0.16   0.00   0.14
  21   1     0.07   0.03   0.08    -0.03   0.14  -0.05    -0.07   0.23  -0.14
  22   1     0.11  -0.01   0.07     0.04   0.08  -0.07     0.25  -0.04   0.14
  23   1     0.08  -0.04   0.02    -0.06   0.09   0.00    -0.20  -0.24   0.03
  24   1     0.09   0.05   0.05     0.05   0.11   0.01     0.18  -0.26   0.04
  25   1     0.03   0.01   0.11     0.02   0.07   0.04     0.07   0.24   0.16
  26   1     0.06   0.03   0.10    -0.00   0.07   0.09    -0.20  -0.01  -0.21
  27   1    -0.09  -0.04   0.01    -0.06  -0.09  -0.01    -0.22   0.26  -0.07
  28   1    -0.11  -0.00   0.05     0.04  -0.08   0.08     0.27   0.03  -0.12
  29   1    -0.08   0.03   0.07    -0.04  -0.15   0.05    -0.12  -0.23   0.14
                      4                      5                      6
                        a                      a                      a 
 Frequencies --   175.1052               196.9574               215.8951
 Red. masses --     7.0302                 4.1397                 1.3957
 Frc consts  --     0.0000                 0.0000                 0.0000
 IR Inten    --     1.9518                 1.1650                 0.1555
 Raman Activ --     0.0000                 0.0000                 0.0000
 Depolar     --     0.0000                 0.0000                 0.0000
 Atom AN      X      Y      Z        X      Y      Z        X      Y      Z
   1   6     0.00  -0.03  -0.00    -0.02   0.02  -0.03     0.02   0.04  -0.00
   2   6    -0.02  -0.04  -0.08     0.02   0.02   0.04    -0.01   0.04   0.00
   3   1     0.01  -0.03   0.01    -0.03   0.02  -0.01     0.01   0.02  -0.00
   4   1    -0.00  -0.01  -0.00    -0.00   0.03  -0.00     0.02   0.00   0.00
   5   6    -0.00  -0.03  -0.01    -0.01   0.04   0.01     0.04   0.00   0.01
   6   6    -0.24   0.09  -0.07     0.19  -0.12   0.06    -0.03   0.09  -0.02
   7   6     0.26   0.10  -0.05    -0.19  -0.12   0.03    -0.05  -0.11   0.02
   8   7     0.01  -0.06  -0.26    -0.01   0.06   0.17    -0.01   0.00   0.01
   9   6    -0.00  -0.03  -0.01     0.02   0.02  -0.03     0.02  -0.04   0.00
  10   6     0.02  -0.04  -0.09    -0.02   0.02   0.03    -0.01  -0.04   0.00
  11   1    -0.00   0.00   0.00     0.00  -0.01  -0.03     0.01  -0.01   0.00
  12   1    -0.01  -0.03   0.00     0.03   0.02  -0.01     0.01  -0.02   0.00
  13   1    -0.00  -0.01  -0.00    -0.00   0.01   0.01     0.02   0.00   0.00
  14   6    -0.12  -0.05   0.03     0.02   0.08   0.02     0.02   0.02   0.00
  15   6     0.11  -0.04   0.05    -0.03   0.08   0.02     0.00  -0.02  -0.01
  16   1    -0.00   0.00   0.01     0.00  -0.01  -0.03     0.01   0.01  -0.00
  17   8    -0.02   0.10   0.43     0.02  -0.05  -0.29     0.00  -0.00  -0.02
  18   1    -0.11   0.23   0.19    -0.06   0.21   0.11    -0.08   0.28   0.15
  19   1    -0.23  -0.26   0.02    -0.11  -0.15   0.02    -0.17  -0.25   0.03
  20   1     0.20  -0.01  -0.16     0.19   0.03  -0.11     0.28   0.01  -0.17
  21   1     0.09   0.01   0.07     0.01  -0.30   0.10    -0.07   0.17  -0.12
  22   1     0.06   0.03  -0.07    -0.33  -0.01  -0.07     0.20  -0.05   0.13
  23   1     0.14   0.07  -0.03     0.11   0.16  -0.00    -0.18  -0.23   0.02
  24   1     0.18  -0.19   0.04     0.10  -0.15   0.04    -0.16   0.23  -0.05
  25   1     0.06   0.18   0.16     0.04   0.22   0.11    -0.06  -0.27  -0.15
  26   1    -0.13  -0.01  -0.13    -0.18   0.02  -0.14     0.23  -0.01   0.19
  27   1    -0.08   0.01  -0.03    -0.07   0.14  -0.01    -0.17   0.23  -0.04
  28   1    -0.12   0.02  -0.05     0.30  -0.02  -0.02     0.22   0.04  -0.09
  29   1    -0.07   0.07   0.02    -0.02  -0.27   0.08    -0.09  -0.17   0.11
                      7                      8                      9
                        a                      a                      a 
 Frequencies --   236.6369               276.4916               278.3410
 Red. masses --     3.5844                 7.6720                 7.5862
 Frc consts  --     0.0000                 0.0000                 0.0000
 IR Inten    --     1.0352                 0.0325                 0.0109
 Raman Activ --     0.0000                 0.0000                 0.0000
 Depolar     --     0.0000                 0.0000                 0.0000
 Atom AN      X      Y      Z        X      Y      Z        X      Y      Z
   1   6    -0.03   0.01  -0.04    -0.05  -0.00  -0.24    -0.07   0.01  -0.03
   2   6    -0.02   0.01  -0.04     0.02  -0.02  -0.11     0.02  -0.01  -0.11
   3   1    -0.02   0.01  -0.01    -0.11   0.04  -0.09    -0.11  -0.04   0.00
   4   1     0.00   0.01  -0.00     0.09   0.04   0.01    -0.01   0.31   0.04
   5   6     0.00   0.01   0.01     0.09   0.05   0.05    -0.03   0.40   0.35
   6   6    -0.08   0.05  -0.04    -0.24   0.22  -0.14     0.06  -0.30  -0.00
   7   6     0.08   0.03  -0.04    -0.26  -0.28   0.11    -0.01  -0.23  -0.04
   8   7     0.01   0.06  -0.13     0.01   0.00  -0.02     0.01   0.03  -0.15
   9   6     0.04   0.01  -0.03    -0.06   0.00   0.22     0.11   0.01  -0.09
  10   6     0.02   0.01  -0.04     0.01   0.01   0.08    -0.01  -0.01  -0.13
  11   1     0.01   0.00  -0.02     0.00   0.03   0.14     0.01  -0.02  -0.10
  12   1     0.02   0.01  -0.01    -0.09  -0.05   0.07     0.14  -0.02  -0.01
  13   1     0.00   0.00   0.01     0.02   0.02   0.04    -0.02   0.12   0.31
  14   6    -0.17  -0.14   0.06     0.19   0.20   0.01    -0.21   0.01   0.04
  15   6     0.16  -0.15   0.08     0.23  -0.19   0.02     0.14   0.05   0.05
  16   1    -0.00   0.00  -0.03     0.02  -0.03  -0.16     0.00  -0.01  -0.06
  17   8    -0.01   0.14   0.19     0.09   0.01   0.01    -0.01   0.08   0.02
  18   1     0.02  -0.23  -0.02     0.03   0.09  -0.06    -0.05  -0.01   0.06
  19   1     0.02   0.11  -0.01     0.09   0.08   0.01    -0.11   0.02  -0.02
  20   1    -0.24  -0.05   0.11     0.10   0.06   0.04    -0.08   0.00   0.03
  21   1     0.09  -0.22   0.13    -0.05  -0.21  -0.01    -0.02  -0.02  -0.06
  22   1    -0.22   0.04  -0.13    -0.20  -0.07   0.08     0.05  -0.07   0.07
  23   1     0.21   0.22  -0.03    -0.06  -0.06   0.03    -0.06  -0.15  -0.02
  24   1    -0.03   0.11  -0.02     0.12  -0.07   0.00     0.08   0.04  -0.01
  25   1    -0.02  -0.25  -0.03     0.03  -0.09   0.08     0.03   0.01   0.05
  26   1     0.24  -0.05   0.14     0.12  -0.06  -0.02     0.04   0.02   0.04
  27   1    -0.20   0.24  -0.06    -0.04   0.01  -0.04     0.07  -0.18  -0.00
  28   1     0.25   0.03  -0.11    -0.21   0.05  -0.09    -0.02  -0.09   0.10
  29   1    -0.12  -0.22   0.13    -0.04   0.20  -0.01     0.04  -0.07  -0.06
                     10                     11                     12
                        a                      a                      a 
 Frequencies --   295.2074               302.3769               320.2475
 Red. masses --     9.2025                 7.9617                 9.8635
 Frc consts  --     0.0000                 0.0000                 0.0000
 IR Inten    --     2.3455                 0.1665                 2.2901
 Raman Activ --     0.0000                 0.0000                 0.0000
 Depolar     --     0.0000                 0.0000                 0.0000
 Atom AN      X      Y      Z        X      Y      Z        X      Y      Z
   1   6    -0.28   0.10  -0.06    -0.02  -0.05   0.06     0.12  -0.10   0.01
   2   6     0.00   0.10   0.09    -0.05  -0.05  -0.04     0.11  -0.11  -0.02
   3   1    -0.14   0.09  -0.04    -0.02  -0.05   0.03     0.06  -0.04   0.01
   4   1    -0.06   0.00  -0.00    -0.00   0.08   0.04     0.00   0.08  -0.03
   5   6    -0.24   0.01  -0.01    -0.02   0.08   0.19     0.00   0.06  -0.03
   6   6     0.34   0.19  -0.03    -0.28  -0.08   0.03     0.18   0.14  -0.14
   7   6     0.31  -0.20   0.06     0.30  -0.09   0.06    -0.16   0.15  -0.17
   8   7     0.01   0.00  -0.00     0.01  -0.12  -0.11     0.00  -0.35  -0.05
   9   6    -0.28  -0.10   0.02    -0.01  -0.06   0.06    -0.12  -0.10  -0.00
  10   6     0.01  -0.10  -0.09     0.06  -0.06  -0.04    -0.11  -0.11  -0.04
  11   1    -0.08   0.04   0.06    -0.01   0.00   0.02    -0.01  -0.05   0.04
  12   1    -0.14  -0.08   0.02     0.01  -0.05   0.03    -0.06  -0.04   0.00
  13   1    -0.03   0.00   0.00    -0.01   0.02   0.12    -0.00   0.02   0.05
  14   6     0.13  -0.08  -0.16     0.31   0.23  -0.12    -0.14   0.28   0.11
  15   6     0.13   0.06   0.19    -0.29   0.23  -0.15     0.13   0.27   0.13
  16   1    -0.07  -0.04  -0.07     0.00  -0.00   0.02     0.01  -0.04   0.04
  17   8    -0.24   0.01  -0.01    -0.01  -0.10   0.03    -0.02  -0.34   0.14
  18   1     0.03  -0.02  -0.08     0.07   0.07  -0.15    -0.05   0.09   0.02
  19   1     0.08  -0.03  -0.03     0.17   0.13  -0.03    -0.07   0.17  -0.01
  20   1     0.04  -0.02  -0.06     0.12   0.07   0.04    -0.02   0.09   0.15
  21   1     0.09  -0.03   0.09     0.11  -0.10   0.12    -0.05   0.04  -0.05
  22   1     0.12  -0.06   0.06     0.01  -0.02  -0.01    -0.05   0.04  -0.13
  23   1     0.14  -0.11  -0.04     0.19   0.03  -0.02    -0.06   0.12  -0.01
  24   1     0.08   0.03   0.04    -0.16   0.14  -0.05     0.07   0.17  -0.01
  25   1     0.02   0.01   0.09    -0.05   0.07  -0.15     0.04   0.08   0.02
  26   1     0.04   0.02   0.06    -0.12   0.07   0.03     0.01   0.08   0.15
  27   1     0.15   0.10   0.06    -0.17   0.04  -0.04     0.06   0.12  -0.00
  28   1     0.12   0.05  -0.04     0.00  -0.02  -0.01     0.07   0.04  -0.12
  29   1     0.11   0.04  -0.08    -0.12  -0.10   0.10     0.05   0.04  -0.04
                     13                     14                     15
                        a                      a                      a 
 Frequencies --   365.2565               393.8666               399.6810
 Red. masses --    11.6437                 7.1744                 8.2433
 Frc consts  --     0.0000                 0.0000                 0.0000
 IR Inten    --    12.2006                 1.1898                 0.7083
 Raman Activ --     0.0000                 0.0000                 0.0000
 Depolar     --     0.0000                 0.0000                 0.0000
 Atom AN      X      Y      Z        X      Y      Z        X      Y      Z
   1   6    -0.10  -0.08  -0.03     0.14   0.04   0.31     0.01   0.13  -0.10
   2   6     0.02  -0.08   0.04     0.01   0.06  -0.13     0.00   0.10   0.27
   3   1    -0.05   0.00  -0.02     0.21  -0.10   0.14    -0.09   0.14  -0.07
   4   1    -0.02   0.00  -0.00    -0.00  -0.18   0.04     0.07  -0.01   0.01
   5   6    -0.14   0.00  -0.01    -0.00  -0.12  -0.03     0.16  -0.01   0.01
   6   6    -0.03   0.16  -0.05     0.07  -0.21  -0.05     0.05   0.08   0.30
   7   6    -0.03  -0.16   0.04    -0.07  -0.20  -0.04     0.08  -0.09  -0.30
   8   7     0.09  -0.01   0.00     0.02   0.09  -0.26     0.06   0.00  -0.00
   9   6    -0.11   0.08   0.02    -0.17   0.05   0.29    -0.01  -0.13   0.12
  10   6     0.02   0.08  -0.04     0.00   0.06  -0.12     0.04  -0.10  -0.27
  11   1    -0.04   0.06   0.03    -0.01   0.11   0.26     0.03   0.03   0.16
  12   1    -0.06  -0.00   0.01    -0.22  -0.09   0.11    -0.11  -0.14   0.07
  13   1    -0.06   0.00  -0.00     0.01  -0.04  -0.15     0.08  -0.00  -0.00
  14   6    -0.16  -0.25  -0.02    -0.09   0.08  -0.07    -0.22   0.20   0.02
  15   6    -0.15   0.26  -0.00     0.11   0.09  -0.05    -0.21  -0.19  -0.05
  16   1    -0.03  -0.06  -0.03    -0.02   0.11   0.26     0.04  -0.02  -0.14
  17   8     0.69  -0.01   0.04    -0.00   0.17   0.00     0.12   0.01   0.01
  18   1    -0.01  -0.13   0.06    -0.02   0.02  -0.01    -0.05   0.05   0.07
  19   1    -0.06  -0.11   0.00    -0.04   0.04  -0.03    -0.16   0.15  -0.07
  20   1    -0.12  -0.08  -0.07    -0.03   0.02   0.01    -0.06   0.06   0.12
  21   1    -0.00  -0.08  -0.01    -0.01  -0.12  -0.04     0.02  -0.01  -0.08
  22   1    -0.04  -0.04   0.09    -0.07  -0.05   0.08     0.04  -0.03  -0.09
  23   1    -0.01  -0.09  -0.01    -0.01  -0.11  -0.04     0.02  -0.03  -0.09
  24   1    -0.06   0.11  -0.01     0.05   0.05  -0.03    -0.16  -0.15   0.05
  25   1    -0.00   0.14  -0.06     0.02   0.02  -0.00    -0.04  -0.05  -0.07
  26   1    -0.13   0.08   0.06     0.04   0.03   0.02    -0.05  -0.06  -0.13
  27   1    -0.01   0.10   0.01     0.01  -0.11  -0.04     0.02   0.02   0.09
  28   1    -0.02   0.04  -0.10     0.06  -0.05   0.08     0.02   0.02   0.10
  29   1    -0.00   0.08   0.01     0.01  -0.12  -0.04     0.01   0.01   0.07
                     16                     17                     18
                        a                      a                      a 
 Frequencies --   446.9550               459.7998               519.0209
 Red. masses --     9.5531                 9.3938                11.5023
 Frc consts  --     0.0000                 0.0000                 0.0000
 IR Inten    --     0.1669                 1.0968                 3.2155
 Raman Activ --     0.0000                 0.0000                 0.0000
 Depolar     --     0.0000                 0.0000                 0.0000
 Atom AN      X      Y      Z        X      Y      Z        X      Y      Z
   1   6    -0.24  -0.12   0.03    -0.19   0.13   0.06    -0.05   0.13  -0.02
   2   6    -0.18  -0.06  -0.04     0.28   0.13  -0.05    -0.03   0.08   0.15
   3   1    -0.16  -0.02  -0.00    -0.07   0.03   0.02    -0.07   0.10  -0.03
   4   1    -0.01  -0.19   0.10    -0.13   0.00  -0.01    -0.00  -0.04   0.01
   5   6    -0.02  -0.41   0.27    -0.26   0.00  -0.02     0.00   0.04  -0.03
   6   6     0.07   0.02  -0.17    -0.09  -0.00   0.12     0.15   0.02   0.17
   7   6    -0.05   0.03  -0.18    -0.08   0.00  -0.13    -0.17   0.03   0.15
   8   7     0.01   0.19  -0.14     0.24  -0.00   0.02     0.04  -0.26  -0.71
   9   6     0.23  -0.12   0.06    -0.18  -0.13  -0.09     0.05   0.13  -0.01
  10   6     0.19  -0.06  -0.01     0.27  -0.13   0.09     0.01   0.08   0.15
  11   1     0.01  -0.01  -0.10    -0.08   0.02  -0.03     0.00  -0.01  -0.07
  12   1     0.16  -0.02   0.02    -0.06  -0.03  -0.03     0.07   0.10  -0.02
  13   1    -0.00  -0.12  -0.01    -0.00   0.00   0.00     0.00   0.01  -0.07
  14   6     0.08   0.10   0.16     0.13  -0.11   0.31     0.12  -0.05   0.06
  15   6    -0.09   0.11   0.15     0.17   0.10  -0.29    -0.13  -0.05   0.04
  16   1     0.00  -0.01  -0.09    -0.08  -0.02   0.02     0.01  -0.01  -0.07
  17   8     0.01   0.24  -0.07    -0.10   0.00  -0.01    -0.00  -0.10   0.11
  18   1     0.02   0.05   0.06     0.05  -0.04   0.16     0.03  -0.01  -0.03
  19   1    -0.03   0.09   0.01    -0.04  -0.02   0.06     0.09  -0.05   0.05
  20   1     0.05   0.03   0.12     0.02  -0.03   0.10     0.04  -0.02  -0.03
  21   1    -0.02   0.01  -0.12    -0.03  -0.02  -0.14    -0.04  -0.05  -0.04
  22   1    -0.02   0.01  -0.08    -0.05   0.00  -0.10    -0.11   0.01   0.07
  23   1    -0.08   0.04   0.00    -0.12   0.08   0.05    -0.09   0.01   0.07
  24   1     0.03   0.09   0.01    -0.03   0.02  -0.06    -0.10  -0.05   0.04
  25   1    -0.02   0.05   0.06     0.07   0.04  -0.15    -0.02  -0.01  -0.03
  26   1    -0.07   0.04   0.12     0.04   0.03  -0.10    -0.03  -0.02  -0.04
  27   1     0.08   0.04   0.01    -0.11  -0.08  -0.07     0.09   0.01   0.08
  28   1     0.03   0.01  -0.08    -0.07  -0.00   0.10     0.09   0.01   0.09
  29   1     0.04   0.01  -0.12    -0.05   0.02   0.14     0.05  -0.05  -0.04
                     19                     20                     21
                        a                      a                      a 
 Frequencies --   537.0216               584.0499               665.8315
 Red. masses --    10.2956                 7.8327                10.3402
 Frc consts  --     0.0000                 0.0000                 0.0000
 IR Inten    --     7.2210                 1.7665                 0.6173
 Raman Activ --     0.0000                 0.0000                 0.0000
 Depolar     --     0.0000                 0.0000                 0.0000
 Atom AN      X      Y      Z        X      Y      Z        X      Y      Z
   1   6     0.09  -0.36  -0.05     0.13  -0.09  -0.08     0.11  -0.32  -0.05
   2   6     0.19  -0.24   0.13    -0.22  -0.08   0.03     0.21  -0.08   0.09
   3   1    -0.02  -0.07  -0.03     0.21  -0.08   0.01     0.04  -0.07  -0.02
   4   1     0.06  -0.00   0.00     0.01   0.29  -0.14     0.00   0.15  -0.06
   5   6    -0.03  -0.00  -0.00     0.02   0.21  -0.25    -0.00  -0.15   0.01
   6   6     0.01   0.08   0.07    -0.01  -0.03  -0.08     0.08   0.09   0.23
   7   6     0.02  -0.08  -0.07     0.02  -0.03  -0.09    -0.10   0.09   0.22
   8   7     0.18  -0.00   0.01     0.01   0.12  -0.07     0.01   0.22  -0.23
   9   6     0.09   0.36   0.06    -0.12  -0.08  -0.09    -0.11  -0.32  -0.06
  10   6     0.21   0.24  -0.10     0.21  -0.08   0.06    -0.22  -0.08   0.07
  11   1     0.01   0.16   0.04     0.01   0.06   0.14    -0.01  -0.12  -0.00
  12   1    -0.02   0.07   0.03    -0.21  -0.08  -0.02    -0.04  -0.07  -0.02
  13   1    -0.14   0.00  -0.01    -0.01   0.06   0.17    -0.01  -0.04   0.21
  14   6    -0.05   0.01  -0.03     0.22  -0.10   0.26    -0.09   0.03  -0.11
  15   6    -0.06  -0.01   0.03    -0.25  -0.10   0.23     0.10   0.03  -0.09
  16   1     0.02  -0.16  -0.04    -0.03   0.06   0.14     0.01  -0.12   0.00
  17   8    -0.45   0.00  -0.03     0.00   0.17  -0.05     0.01   0.36  -0.10
  18   1     0.02  -0.05   0.11     0.07  -0.03   0.10    -0.06   0.05  -0.13
  19   1    -0.08  -0.04  -0.02     0.04  -0.03   0.06     0.05   0.02  -0.00
  20   1    -0.08  -0.00  -0.07     0.06  -0.03   0.08     0.03   0.01  -0.02
  21   1     0.02  -0.10  -0.09    -0.00  -0.01  -0.10    -0.03   0.07   0.12
  22   1    -0.06  -0.02   0.09    -0.01  -0.01  -0.07     0.01   0.02   0.02
  23   1    -0.01  -0.08  -0.04    -0.06   0.05   0.04    -0.00   0.05   0.06
  24   1    -0.08   0.04   0.01    -0.04  -0.03   0.06    -0.05   0.02  -0.01
  25   1     0.03   0.05  -0.10    -0.08  -0.03   0.09     0.07   0.05  -0.13
  26   1    -0.09   0.00   0.06    -0.07  -0.03   0.07    -0.03   0.01  -0.02
  27   1    -0.02   0.08   0.03     0.06   0.05   0.05    -0.00   0.05   0.05
  28   1    -0.05   0.02  -0.09     0.02  -0.01  -0.07    -0.01   0.02   0.02
  29   1     0.01   0.10   0.09     0.01  -0.01  -0.10     0.02   0.07   0.12
                     22                     23                     24
                        a                      a                      a 
 Frequencies --   819.1632               838.1832               884.4077
 Red. masses --     8.5451                 7.5311                 5.1639
 Frc consts  --     0.0000                 0.0000                 0.0000
 IR Inten    --     0.2314                 0.5195                 4.9433
 Raman Activ --     0.0000                 0.0000                 0.0000
 Depolar     --     0.0000                 0.0000                 0.0000
 Atom AN      X      Y      Z        X      Y      Z        X      Y      Z
   1   6     0.02  -0.24  -0.17     0.08   0.08   0.10    -0.16   0.16  -0.29
   2   6    -0.17   0.09  -0.08     0.25  -0.17   0.10     0.07  -0.04  -0.02
   3   1     0.14  -0.14  -0.01    -0.11   0.07   0.00     0.31  -0.11   0.00
   4   1     0.14   0.00   0.01    -0.01  -0.20   0.08     0.24  -0.00   0.02
   5   6    -0.09  -0.00  -0.00     0.00   0.32  -0.04     0.00   0.00  -0.00
   6   6     0.04   0.14   0.30     0.01  -0.12  -0.17     0.04  -0.05   0.02
   7   6     0.08  -0.14  -0.29     0.01  -0.13  -0.17     0.04   0.05  -0.02
   8   7    -0.23   0.00  -0.01     0.00   0.11  -0.06     0.21  -0.00   0.01
   9   6     0.00   0.24   0.17    -0.09   0.09   0.09    -0.19  -0.15   0.26
  10   6    -0.17  -0.08   0.06    -0.27  -0.17   0.07     0.06   0.03   0.03
  11   1    -0.04  -0.00  -0.10    -0.01  -0.11  -0.06    -0.14  -0.19  -0.27
  12   1     0.14   0.14   0.03     0.10   0.07   0.01     0.31   0.11   0.04
  13   1    -0.19   0.00  -0.01     0.02   0.08  -0.30     0.09   0.00   0.00
  14   6     0.09  -0.10   0.20     0.03  -0.11   0.15    -0.06   0.06  -0.11
  15   6     0.12   0.10  -0.19    -0.05  -0.10   0.15    -0.07  -0.06   0.10
  16   1    -0.05   0.00   0.09     0.01  -0.12  -0.06    -0.18   0.20   0.26
  17   8     0.08  -0.00   0.00     0.01   0.19  -0.06    -0.03   0.00  -0.00
  18   1    -0.01   0.04  -0.05    -0.05   0.07  -0.11     0.00  -0.01   0.03
  19   1     0.09   0.01   0.07     0.10   0.01   0.06    -0.06   0.01  -0.05
  20   1     0.12  -0.02   0.11     0.13  -0.02   0.11    -0.06   0.01  -0.04
  21   1     0.02   0.01  -0.01    -0.01   0.06   0.06     0.02  -0.07  -0.07
  22   1     0.07  -0.04  -0.11     0.09  -0.04  -0.14    -0.06   0.02   0.10
  23   1     0.07  -0.04  -0.11     0.05   0.00  -0.06    -0.02  -0.05  -0.02
  24   1     0.10  -0.01  -0.05    -0.10   0.02   0.05    -0.07  -0.01   0.04
  25   1    -0.02  -0.04   0.05     0.06   0.06  -0.10     0.01   0.02  -0.03
  26   1     0.13   0.02  -0.10    -0.14  -0.02   0.10    -0.07  -0.01   0.03
  27   1     0.06   0.04   0.12    -0.05  -0.00  -0.07    -0.02   0.05   0.01
  28   1     0.06   0.04   0.12    -0.07  -0.04  -0.15    -0.05  -0.02  -0.11
  29   1     0.02  -0.01   0.01     0.00   0.06   0.06     0.02   0.07   0.08
                     25                     26                     27
                        a                      a                      a 
 Frequencies --   922.8753               951.9618               953.9454
 Red. masses --     7.2999                 4.7170                 5.2639
 Frc consts  --     0.0000                 0.0000                 0.0000
 IR Inten    --     1.3675                 0.8755                 2.4105
 Raman Activ --     0.0000                 0.0000                 0.0000
 Depolar     --     0.0000                 0.0000                 0.0000
 Atom AN      X      Y      Z        X      Y      Z        X      Y      Z
   1   6    -0.40   0.09  -0.05    -0.02   0.05   0.02    -0.10   0.07   0.03
   2   6    -0.04  -0.16  -0.06    -0.07  -0.05   0.16    -0.01   0.02   0.20
   3   1     0.06  -0.11   0.05     0.01   0.02   0.00     0.04   0.06  -0.00
   4   1    -0.00  -0.00  -0.03     0.02  -0.00   0.00     0.00   0.12  -0.06
   5   6     0.01   0.14  -0.14     0.02   0.00   0.00     0.01  -0.13  -0.06
   6   6     0.06  -0.02   0.19    -0.20  -0.16  -0.01    -0.18  -0.14  -0.11
   7   6    -0.09  -0.02   0.19    -0.19   0.16  -0.02     0.19  -0.15  -0.09
   8   7    -0.00   0.00  -0.01    -0.04   0.00  -0.00    -0.00   0.01   0.03
   9   6     0.41   0.09  -0.01    -0.02  -0.05  -0.02     0.10   0.07   0.04
  10   6     0.05  -0.17  -0.06    -0.05   0.05  -0.17    -0.02   0.02   0.21
  11   1     0.17   0.11   0.21    -0.00  -0.02  -0.01     0.04   0.03   0.05
  12   1    -0.07  -0.11   0.04     0.01  -0.02  -0.00    -0.05   0.06  -0.01
  13   1     0.00   0.04  -0.10     0.03   0.00   0.00    -0.00  -0.03   0.12
  14   6    -0.06  -0.07  -0.10     0.23  -0.09   0.08    -0.23   0.10  -0.01
  15   6     0.07  -0.07  -0.09     0.24   0.09  -0.05     0.22   0.09   0.01
  16   1    -0.19   0.11   0.18    -0.00   0.02   0.01    -0.04   0.03   0.04
  17   8     0.00  -0.02  -0.00    -0.01   0.00  -0.00    -0.00  -0.02   0.01
  18   1    -0.06   0.08  -0.07     0.09  -0.04   0.21    -0.10   0.04  -0.23
  19   1    -0.05   0.09  -0.08    -0.13   0.06  -0.08     0.18  -0.08   0.13
  20   1     0.10  -0.01   0.13     0.02  -0.02   0.15    -0.02   0.02  -0.17
  21   1    -0.04   0.09   0.10    -0.02   0.02   0.24     0.03  -0.04  -0.23
  22   1     0.05  -0.01  -0.10     0.01   0.03   0.22    -0.01  -0.03  -0.17
  23   1    -0.03   0.10   0.10     0.18  -0.17  -0.24    -0.12   0.10   0.15
  24   1     0.06   0.09  -0.07    -0.14  -0.06   0.07    -0.19  -0.08   0.10
  25   1     0.06   0.07  -0.06     0.12   0.04  -0.20     0.13   0.04  -0.22
  26   1    -0.11  -0.01   0.12     0.04   0.02  -0.15     0.03   0.02  -0.16
  27   1     0.01   0.09   0.09     0.15   0.17   0.26     0.10   0.10   0.16
  28   1    -0.03  -0.01  -0.10     0.03  -0.04  -0.23     0.02  -0.04  -0.18
  29   1     0.03   0.09   0.10     0.01  -0.02  -0.24    -0.00  -0.04  -0.22
                     28                     29                     30
                        a                      a                      a 
 Frequencies --   957.9756               971.0302               997.6865
 Red. masses --     6.0863                 5.5328                 4.0359
 Frc consts  --     0.0000                 0.0000                 0.0000
 IR Inten    --     1.3197                 7.6476                 0.1674
 Raman Activ --     0.0000                 0.0000                 0.0000
 Depolar     --     0.0000                 0.0000                 0.0000
 Atom AN      X      Y      Z        X      Y      Z        X      Y      Z
   1   6     0.08  -0.13  -0.09    -0.18   0.11   0.02     0.08   0.00   0.10
   2   6     0.11   0.23   0.10     0.17   0.09   0.06    -0.10  -0.07   0.01
   3   1     0.09   0.00  -0.03     0.08   0.11  -0.02    -0.04   0.13  -0.02
   4   1     0.07  -0.00   0.00     0.01   0.25  -0.13     0.00   0.05  -0.04
   5   6    -0.16   0.00  -0.01     0.00  -0.30  -0.11     0.01   0.05  -0.10
   6   6    -0.06   0.02  -0.23     0.09   0.04  -0.19    -0.14   0.15   0.02
   7   6    -0.08  -0.02   0.22    -0.07   0.04  -0.20     0.14   0.15   0.04
   8   7     0.10   0.00   0.01    -0.00  -0.02  -0.02    -0.01   0.02   0.07
   9   6     0.06   0.13   0.10     0.18   0.11   0.05    -0.09   0.00   0.09
  10   6     0.12  -0.23  -0.08    -0.18   0.09   0.03     0.10  -0.07   0.02
  11   1    -0.04   0.10  -0.05     0.07   0.04   0.07    -0.04  -0.08  -0.07
  12   1     0.08  -0.00   0.04    -0.08   0.11  -0.03     0.04   0.13  -0.02
  13   1    -0.19   0.00  -0.01    -0.02  -0.07   0.32     0.00   0.01   0.01
  14   6    -0.05  -0.14  -0.18     0.01  -0.09   0.11    -0.09  -0.18  -0.11
  15   6    -0.06   0.14   0.17    -0.02  -0.09   0.11     0.10  -0.18  -0.10
  16   1    -0.05  -0.10   0.04    -0.08   0.04   0.06     0.04  -0.07  -0.07
  17   8     0.01   0.00   0.00    -0.00  -0.06   0.02     0.00   0.02  -0.01
  18   1    -0.06   0.10  -0.03    -0.04   0.05  -0.06    -0.11   0.14  -0.12
  19   1    -0.16   0.16  -0.18     0.06   0.02   0.04    -0.08   0.15  -0.12
  20   1     0.13  -0.02   0.23     0.10  -0.02   0.10     0.18  -0.03   0.24
  21   1    -0.04   0.08   0.09     0.01  -0.01   0.14     0.06  -0.17  -0.23
  22   1     0.04  -0.01  -0.09     0.02   0.01   0.13    -0.14   0.06   0.21
  23   1    -0.04   0.10   0.12     0.15  -0.15  -0.23    -0.09  -0.05   0.05
  24   1    -0.19  -0.16   0.16    -0.07   0.02   0.03     0.10   0.15  -0.12
  25   1    -0.06  -0.10   0.01     0.05   0.05  -0.06     0.12   0.13  -0.10
  26   1     0.16   0.02  -0.22    -0.11  -0.01   0.08    -0.20  -0.02   0.21
  27   1    -0.02  -0.10  -0.12    -0.12  -0.16  -0.25     0.08  -0.04   0.07
  28   1     0.03   0.01   0.09    -0.03   0.01   0.14     0.11   0.05   0.21
  29   1    -0.03  -0.09  -0.11    -0.03  -0.02   0.12    -0.03  -0.16  -0.23
                     31                     32                     33
                        a                      a                      a 
 Frequencies --  1002.7239              1015.3042              1048.5156
 Red. masses --     3.3707                 5.8905                 5.3799
 Frc consts  --     0.0000                 0.0000                 0.0000
 IR Inten    --     0.6471                 9.5122                 2.7069
 Raman Activ --     0.0000                 0.0000                 0.0000
 Depolar     --     0.0000                 0.0000                 0.0000
 Atom AN      X      Y      Z        X      Y      Z        X      Y      Z
   1   6    -0.02  -0.03  -0.04    -0.24  -0.25   0.06    -0.04   0.02   0.26
   2   6    -0.02   0.01  -0.01     0.05   0.06   0.03    -0.04  -0.04   0.15
   3   1     0.07   0.04  -0.02    -0.06  -0.09   0.03    -0.06   0.25  -0.03
   4   1     0.12  -0.00   0.01    -0.00  -0.06  -0.01     0.01   0.17  -0.12
   5   6     0.01   0.01  -0.00     0.01   0.26  -0.19     0.02  -0.04  -0.26
   6   6    -0.13   0.21  -0.05    -0.05   0.12  -0.08     0.00  -0.13  -0.03
   7   6    -0.13  -0.20   0.03     0.06   0.13  -0.07    -0.00  -0.13  -0.03
   8   7     0.06   0.00   0.01    -0.00   0.00   0.02     0.00   0.00  -0.06
   9   6    -0.02   0.02   0.04     0.23  -0.25   0.09     0.01   0.02   0.26
  10   6    -0.01  -0.01   0.00    -0.05   0.06   0.02     0.02  -0.04   0.15
  11   1    -0.02  -0.00  -0.03     0.20  -0.27   0.14     0.05  -0.21  -0.02
  12   1     0.07  -0.04   0.03     0.06  -0.09   0.03     0.07   0.25  -0.02
  13   1    -0.06   0.00  -0.01     0.01   0.06  -0.17    -0.01  -0.01   0.12
  14   6     0.10   0.18  -0.02     0.01   0.10   0.05     0.09   0.07  -0.19
  15   6     0.10  -0.18   0.03    -0.02   0.11   0.04    -0.06   0.07  -0.20
  16   1    -0.03  -0.01   0.03    -0.21  -0.27   0.12    -0.05  -0.21  -0.02
  17   8     0.00   0.00  -0.00     0.00   0.01   0.00     0.00   0.06  -0.02
  18   1     0.12  -0.14   0.19     0.03  -0.05   0.02     0.08  -0.05   0.20
  19   1    -0.04  -0.09   0.02     0.05  -0.07   0.07    -0.20   0.05  -0.15
  20   1    -0.20   0.03  -0.19    -0.07   0.02  -0.11    -0.10   0.01   0.00
  21   1    -0.07   0.19   0.21     0.04  -0.11  -0.11    -0.02   0.06   0.05
  22   1     0.16  -0.07  -0.28    -0.08   0.04   0.18     0.07  -0.04  -0.14
  23   1     0.05   0.11   0.03     0.00  -0.10  -0.07     0.00   0.05   0.03
  24   1    -0.04   0.09  -0.03    -0.06  -0.07   0.06     0.21   0.05  -0.12
  25   1     0.15   0.14  -0.17    -0.04  -0.06   0.03    -0.11  -0.05   0.19
  26   1    -0.22  -0.03   0.17     0.09   0.02  -0.11     0.10   0.01   0.01
  27   1     0.05  -0.11  -0.01     0.00  -0.09  -0.07    -0.01   0.05   0.03
  28   1     0.13   0.07   0.31     0.06   0.04   0.18    -0.06  -0.04  -0.15
  29   1    -0.05  -0.20  -0.24    -0.03  -0.10  -0.11     0.01   0.06   0.05
                     34                     35                     36
                        a                      a                      a 
 Frequencies --  1058.7530              1085.5032              1114.7500
 Red. masses --     8.7564                 4.1030                 5.1614
 Frc consts  --     0.0000                 0.0000                 0.0000
 IR Inten    --    23.5225                 3.7641                 1.7450
 Raman Activ --     0.0000                 0.0000                 0.0000
 Depolar     --     0.0000                 0.0000                 0.0000
 Atom AN      X      Y      Z        X      Y      Z        X      Y      Z
   1   6    -0.02  -0.02   0.01    -0.03  -0.06  -0.04    -0.23  -0.11   0.12
   2   6    -0.03  -0.01  -0.12    -0.01   0.01  -0.26     0.08  -0.09   0.02
   3   1    -0.07  -0.09   0.03    -0.16  -0.31   0.09    -0.08  -0.09   0.05
   4   1    -0.09   0.00  -0.01    -0.30   0.00  -0.02     0.21  -0.00   0.01
   5   6     0.04   0.00   0.00     0.06   0.00   0.00     0.39  -0.00   0.02
   6   6    -0.16   0.04   0.07     0.06   0.07   0.09    -0.02   0.06  -0.01
   7   6    -0.15  -0.04  -0.09     0.07  -0.07  -0.08    -0.02  -0.06   0.01
   8   7     0.67  -0.00   0.04    -0.05   0.00  -0.00    -0.14   0.00  -0.01
   9   6    -0.02   0.02  -0.01    -0.03   0.06   0.03    -0.21   0.11  -0.14
  10   6    -0.05   0.01   0.12    -0.04  -0.01   0.26     0.08   0.09  -0.01
  11   1     0.04  -0.07   0.04     0.10  -0.18   0.08    -0.17   0.23  -0.13
  12   1    -0.06   0.09  -0.04    -0.15   0.31  -0.11    -0.07   0.09  -0.06
  13   1     0.07  -0.00   0.00     0.14  -0.00   0.01     0.55  -0.00   0.03
  14   6    -0.17  -0.04   0.02     0.08  -0.01  -0.20    -0.01  -0.08   0.00
  15   6    -0.17   0.04  -0.04     0.06   0.01   0.20    -0.01   0.08  -0.01
  16   1     0.04   0.06  -0.03     0.11   0.18  -0.07    -0.19  -0.22   0.11
  17   8    -0.08   0.00  -0.01     0.02  -0.00   0.00     0.00   0.00   0.00
  18   1    -0.11   0.08  -0.19     0.05  -0.01   0.17    -0.03   0.04  -0.03
  19   1     0.10   0.00   0.06    -0.20   0.08  -0.17     0.00   0.04  -0.02
  20   1     0.07  -0.01   0.01    -0.05  -0.00   0.07     0.06  -0.01   0.06
  21   1    -0.04   0.08   0.20     0.01  -0.02  -0.05    -0.01   0.04   0.03
  22   1     0.08  -0.02  -0.01     0.02  -0.02  -0.05     0.03  -0.02  -0.08
  23   1     0.12  -0.05  -0.14    -0.01   0.01   0.00     0.00   0.03   0.02
  24   1     0.10  -0.00  -0.04    -0.22  -0.08   0.14    -0.00  -0.04   0.02
  25   1    -0.13  -0.07   0.17     0.07   0.01  -0.16    -0.03  -0.04   0.03
  26   1     0.07   0.01   0.00    -0.04  -0.00  -0.07     0.07   0.01  -0.06
  27   1     0.10   0.05   0.15    -0.01  -0.01  -0.01     0.01  -0.03  -0.02
  28   1     0.07   0.02   0.02     0.01   0.02   0.05     0.02   0.02   0.08
  29   1    -0.01  -0.08  -0.20     0.01   0.02   0.05    -0.01  -0.04  -0.03
                     37                     38                     39
                        a                      a                      a 
 Frequencies --  1147.5631              1175.6448              1194.8729
 Red. masses --     8.0024                 7.9365                 9.4118
 Frc consts  --     0.0000                 0.0000                 0.0000
 IR Inten    --     6.9437                 2.4335                19.7137
 Raman Activ --     0.0000                 0.0000                 0.0000
 Depolar     --     0.0000                 0.0000                 0.0000
 Atom AN      X      Y      Z        X      Y      Z        X      Y      Z
   1   6    -0.20  -0.12   0.15    -0.02   0.09  -0.18     0.01  -0.08  -0.20
   2   6    -0.30   0.03   0.13     0.41   0.04   0.07    -0.19   0.01   0.44
   3   1    -0.06  -0.01   0.03     0.13  -0.02  -0.02     0.16   0.01  -0.05
   4   1     0.34  -0.00   0.02    -0.00  -0.05   0.07     0.00  -0.14   0.11
   5   6     0.27  -0.00   0.01    -0.01  -0.12   0.23    -0.01   0.13   0.23
   6   6     0.10  -0.01  -0.08    -0.17  -0.01  -0.00     0.05  -0.00  -0.15
   7   6     0.09   0.01   0.09     0.17  -0.01   0.02    -0.03  -0.00  -0.16
   8   7     0.32  -0.00   0.02     0.00   0.00  -0.00     0.00  -0.01  -0.06
   9   6    -0.18   0.12  -0.17     0.04   0.09  -0.17     0.01  -0.09  -0.21
  10   6    -0.28  -0.03  -0.17    -0.42   0.04   0.01     0.14   0.00   0.48
  11   1     0.09  -0.20   0.06     0.10  -0.03   0.12     0.03   0.06   0.08
  12   1    -0.05   0.01  -0.04    -0.13  -0.02  -0.03    -0.15   0.00  -0.07
  13   1    -0.22   0.00  -0.01    -0.00  -0.03   0.02    -0.00   0.03  -0.10
  14   6     0.10  -0.05   0.06     0.18  -0.05  -0.03    -0.06   0.00  -0.17
  15   6     0.11   0.05  -0.04    -0.17  -0.04  -0.05     0.08  -0.00  -0.15
  16   1     0.10   0.20  -0.05    -0.11  -0.02   0.10    -0.03   0.06   0.07
  17   8    -0.03   0.00  -0.00     0.00   0.03  -0.01     0.00   0.02  -0.01
  18   1     0.04  -0.02   0.07     0.07  -0.03   0.18    -0.03   0.05   0.00
  19   1    -0.03  -0.00  -0.01    -0.11   0.03  -0.08    -0.09   0.06  -0.09
  20   1     0.01  -0.01   0.05    -0.02  -0.01   0.09    -0.03   0.00   0.02
  21   1     0.01  -0.03  -0.11     0.03  -0.06  -0.19     0.01  -0.02   0.06
  22   1    -0.06   0.01  -0.03    -0.07   0.01  -0.03     0.04  -0.01   0.03
  23   1    -0.10   0.05   0.12    -0.11   0.04   0.11     0.08  -0.07  -0.13
  24   1    -0.03   0.00   0.01     0.12   0.03  -0.07     0.10   0.06  -0.08
  25   1     0.05   0.02  -0.07    -0.10  -0.03   0.17     0.03   0.04   0.01
  26   1     0.01   0.01  -0.05     0.01  -0.01   0.09     0.03   0.00   0.02
  27   1    -0.09  -0.05  -0.13     0.09   0.04   0.12    -0.07  -0.07  -0.13
  28   1    -0.07  -0.01   0.02     0.08   0.00  -0.02    -0.04  -0.00   0.03
  29   1    -0.00   0.03   0.11    -0.01  -0.06  -0.19    -0.02  -0.02   0.05
                     40                     41                     42
                        a                      a                      a 
 Frequencies --  1204.7875              1242.4893              1256.0645
 Red. masses --     6.8017                 7.8487                 7.5238
 Frc consts  --     0.0000                 0.0000                 0.0000
 IR Inten    --     0.0279                 1.6558                13.2907
 Raman Activ --     0.0000                 0.0000                 0.0000
 Depolar     --     0.0000                 0.0000                 0.0000
 Atom AN      X      Y      Z        X      Y      Z        X      Y      Z
   1   6    -0.07   0.02   0.20     0.09   0.10   0.05    -0.11   0.11   0.03
   2   6     0.17   0.15  -0.36    -0.22  -0.32  -0.24     0.26  -0.36   0.08
   3   1    -0.07   0.09   0.02     0.10   0.29  -0.09    -0.00  -0.02   0.03
   4   1     0.48   0.00   0.03     0.05  -0.00   0.00     0.14   0.00   0.01
   5   6     0.09  -0.00   0.00    -0.17   0.00  -0.01     0.02   0.00  -0.00
   6   6    -0.04  -0.07   0.11     0.07   0.08   0.07    -0.05   0.09  -0.02
   7   6    -0.02   0.07  -0.10     0.08  -0.09  -0.06    -0.05  -0.10   0.01
   8   7    -0.08   0.00  -0.00     0.18  -0.00   0.01    -0.25   0.00  -0.02
   9   6    -0.04  -0.02  -0.20     0.10  -0.11  -0.04    -0.11  -0.11  -0.04
  10   6     0.11  -0.16   0.36    -0.24   0.35   0.21     0.27   0.37  -0.04
  11   1    -0.01   0.09   0.02    -0.03   0.12  -0.00     0.11  -0.29   0.08
  12   1    -0.06  -0.09  -0.02     0.09  -0.30   0.10     0.01   0.01  -0.02
  13   1    -0.34   0.00  -0.02     0.12  -0.00   0.01    -0.24   0.00  -0.01
  14   6    -0.05   0.05  -0.12     0.06  -0.11  -0.07    -0.05  -0.11   0.01
  15   6    -0.07  -0.05   0.12     0.06   0.10   0.07    -0.05   0.11  -0.02
  16   1    -0.01  -0.09  -0.02    -0.04  -0.12   0.00     0.13   0.29  -0.06
  17   8     0.03  -0.00   0.00    -0.04  -0.00  -0.00    -0.01  -0.00   0.00
  18   1    -0.01   0.01   0.00    -0.01   0.06   0.07    -0.05   0.07  -0.06
  19   1    -0.06   0.01  -0.05    -0.08   0.08  -0.09     0.04   0.07  -0.01
  20   1    -0.05   0.01  -0.03     0.03  -0.02   0.14     0.11  -0.01   0.07
  21   1     0.02  -0.05   0.02     0.01   0.01  -0.07    -0.02   0.07   0.04
  22   1    -0.00   0.01   0.06     0.00  -0.02  -0.08     0.08  -0.03  -0.10
  23   1     0.06  -0.09  -0.11    -0.02   0.03   0.03     0.05   0.06   0.00
  24   1    -0.07  -0.01   0.04    -0.10  -0.07   0.08     0.04  -0.07   0.02
  25   1    -0.01  -0.01  -0.00     0.01  -0.05  -0.07    -0.06  -0.07   0.05
  26   1    -0.06  -0.01   0.03     0.04   0.01  -0.13     0.12   0.01  -0.05
  27   1     0.05   0.10   0.12    -0.01  -0.03  -0.03     0.05  -0.06   0.01
  28   1     0.01  -0.02  -0.07    -0.01   0.02   0.08     0.07   0.03   0.11
  29   1     0.02   0.05  -0.02    -0.00  -0.01   0.06    -0.02  -0.07  -0.04
                     43                     44                     45
                        a                      a                      a 
 Frequencies --  1259.9152              1273.9507              1337.1717
 Red. masses --     8.8133                 4.4166                 4.8643
 Frc consts  --     0.0000                 0.0000                 0.0000
 IR Inten    --    39.9377                 8.0382                 0.3450
 Raman Activ --     0.0000                 0.0000                 0.0000
 Depolar     --     0.0000                 0.0000                 0.0000
 Atom AN      X      Y      Z        X      Y      Z        X      Y      Z
   1   6     0.06  -0.13  -0.02    -0.08  -0.10   0.08    -0.03   0.17  -0.07
   2   6    -0.05   0.52  -0.04     0.13   0.13   0.21    -0.05  -0.10  -0.01
   3   1    -0.03  -0.08   0.01    -0.23  -0.33   0.12    -0.04  -0.05   0.02
   4   1    -0.00  -0.04   0.02     0.00   0.08  -0.10    -0.38   0.00  -0.02
   5   6     0.00   0.00   0.03     0.02   0.04  -0.29     0.50  -0.00   0.03
   6   6     0.01  -0.15   0.01    -0.05  -0.02  -0.07     0.01   0.04   0.03
   7   6    -0.01  -0.14   0.01     0.06  -0.02  -0.06     0.02  -0.03  -0.03
   8   7    -0.00   0.04  -0.01     0.01   0.01  -0.03     0.03  -0.00   0.00
   9   6    -0.06  -0.13  -0.03     0.07  -0.09   0.09    -0.04  -0.17   0.06
  10   6     0.07   0.50  -0.05    -0.16   0.11   0.19    -0.05   0.10   0.01
  11   1     0.08  -0.20   0.05    -0.19   0.31  -0.15    -0.18   0.20  -0.15
  12   1     0.02  -0.06   0.01     0.20  -0.33   0.15    -0.04   0.05  -0.02
  13   1    -0.00  -0.00   0.00     0.00   0.01  -0.01    -0.54   0.00  -0.03
  14   6    -0.02  -0.16   0.02     0.04  -0.02  -0.06     0.02  -0.03   0.01
  15   6     0.01  -0.16   0.02    -0.04  -0.02  -0.06     0.02   0.03  -0.00
  16   1    -0.09  -0.20   0.04     0.20   0.29  -0.12    -0.20  -0.19   0.13
  17   8    -0.00  -0.17   0.05    -0.00  -0.04   0.01    -0.01   0.00  -0.00
  18   1    -0.06   0.09  -0.04     0.01   0.02   0.06    -0.01   0.03   0.00
  19   1     0.02   0.09  -0.03    -0.06   0.02  -0.05    -0.01   0.02  -0.01
  20   1     0.11  -0.02   0.12    -0.03  -0.00   0.06    -0.01  -0.01   0.01
  21   1    -0.03   0.09   0.02     0.01  -0.01  -0.04    -0.00   0.03   0.01
  22   1     0.06  -0.03  -0.14    -0.02  -0.00  -0.01    -0.01  -0.00   0.02
  23   1     0.02   0.08   0.04    -0.01  -0.01  -0.00    -0.01   0.03   0.02
  24   1    -0.01   0.09  -0.04     0.06   0.02  -0.04    -0.01  -0.02   0.01
  25   1     0.06   0.09  -0.03    -0.01   0.02   0.05    -0.01  -0.03  -0.00
  26   1    -0.13  -0.02   0.12     0.02  -0.00   0.07    -0.01   0.01  -0.01
  27   1    -0.02   0.09   0.03     0.01  -0.01   0.00    -0.01  -0.03  -0.03
  28   1    -0.04  -0.04  -0.15     0.02  -0.00  -0.01    -0.01   0.00  -0.02
  29   1     0.03   0.09   0.02    -0.01  -0.01  -0.04    -0.00  -0.03  -0.01
                     46                     47                     48
                        a                      a                      a 
 Frequencies --  1352.0287              1356.1830              1382.8629
 Red. masses --     5.2087                 5.5102                11.3051
 Frc consts  --     0.0000                 0.0000                 0.0000
 IR Inten    --     0.8766                 6.2012                28.4525
 Raman Activ --     0.0000                 0.0000                 0.0000
 Depolar     --     0.0000                 0.0000                 0.0000
 Atom AN      X      Y      Z        X      Y      Z        X      Y      Z
   1   6    -0.23  -0.29   0.04     0.16   0.30  -0.09    -0.05  -0.07   0.01
   2   6     0.10   0.09  -0.09    -0.10  -0.08   0.09     0.01   0.11  -0.03
   3   1     0.27   0.34  -0.13    -0.20  -0.33   0.12     0.03   0.05  -0.02
   4   1    -0.40  -0.00  -0.02    -0.02   0.04  -0.03    -0.00  -0.03   0.01
   5   6     0.27   0.01   0.02     0.01  -0.18  -0.03     0.00   0.04  -0.01
   6   6    -0.02  -0.02   0.02     0.03   0.04   0.01     0.04   0.03   0.10
   7   6    -0.02   0.02  -0.02    -0.03   0.04   0.00    -0.05   0.03   0.11
   8   7    -0.05   0.01  -0.00    -0.00  -0.09   0.02    -0.01  -0.63   0.15
   9   6    -0.20   0.26  -0.06    -0.17   0.34  -0.11     0.05  -0.07   0.02
  10   6     0.08  -0.08   0.09     0.10  -0.09   0.11    -0.00   0.11  -0.03
  11   1     0.05  -0.14   0.03     0.14  -0.27   0.09    -0.03   0.07  -0.02
  12   1     0.23  -0.31   0.15     0.21  -0.36   0.16    -0.03   0.05  -0.02
  13   1     0.05   0.00  -0.00    -0.00  -0.04   0.11    -0.00   0.01   0.01
  14   6    -0.03   0.02  -0.04    -0.05   0.02  -0.05    -0.05  -0.00  -0.03
  15   6    -0.04  -0.02   0.04     0.05   0.02  -0.04     0.06  -0.00  -0.03
  16   1     0.07   0.16  -0.03    -0.15  -0.25   0.07     0.03   0.07  -0.01
  17   8     0.01  -0.01   0.00     0.00   0.10  -0.03     0.01   0.50  -0.11
  18   1     0.01  -0.02   0.01     0.01  -0.03   0.02     0.02  -0.05   0.07
  19   1     0.01  -0.03   0.01     0.02  -0.03   0.01     0.07   0.00   0.03
  20   1     0.02   0.00   0.04     0.03   0.01   0.04     0.10   0.00   0.05
  21   1     0.01  -0.03   0.01     0.01  -0.06  -0.01     0.00  -0.10  -0.14
  22   1     0.03   0.00   0.04     0.05   0.00  -0.02     0.10  -0.01  -0.17
  23   1     0.02  -0.01  -0.02     0.03  -0.05  -0.05     0.09  -0.08  -0.09
  24   1     0.01   0.03  -0.01    -0.02  -0.02   0.01    -0.08  -0.00   0.02
  25   1     0.01   0.02  -0.01    -0.01  -0.03   0.01    -0.03  -0.05   0.07
  26   1     0.02  -0.01  -0.04    -0.03   0.01   0.03    -0.11   0.00   0.04
  27   1     0.02   0.01   0.03    -0.02  -0.05  -0.05    -0.08  -0.06  -0.09
  28   1     0.04  -0.00  -0.03    -0.04   0.00  -0.03    -0.07  -0.01  -0.16
  29   1     0.01   0.03  -0.00    -0.01  -0.05  -0.01     0.01  -0.09  -0.12
                     49                     50                     51
                        a                      a                      a 
 Frequencies --  1386.7867              1391.4159              1406.1327
 Red. masses --     3.0575                 3.2008                 2.9299
 Frc consts  --     0.0000                 0.0000                 0.0000
 IR Inten    --     0.5283                13.5358                 8.7329
 Raman Activ --     0.0000                 0.0000                 0.0000
 Depolar     --     0.0000                 0.0000                 0.0000
 Atom AN      X      Y      Z        X      Y      Z        X      Y      Z
   1   6     0.00  -0.01  -0.02    -0.00   0.01   0.01     0.03   0.03  -0.01
   2   6    -0.02  -0.01   0.02     0.01  -0.01  -0.01    -0.02  -0.01  -0.00
   3   1    -0.00   0.02  -0.01    -0.00  -0.01   0.01    -0.05  -0.02   0.01
   4   1    -0.06   0.00  -0.00    -0.00  -0.03   0.01    -0.00  -0.00  -0.00
   5   6     0.03  -0.00   0.00     0.00   0.00  -0.02     0.02   0.00   0.00
   6   6    -0.06  -0.09  -0.22     0.05   0.08   0.18    -0.04  -0.06  -0.14
   7   6    -0.09   0.09   0.21    -0.07   0.08   0.17    -0.06   0.06   0.14
   8   7     0.02   0.02  -0.00     0.00   0.10  -0.02     0.03   0.01  -0.00
   9   6    -0.00   0.01   0.01    -0.00   0.01   0.01     0.02  -0.03   0.02
  10   6    -0.01  -0.00  -0.02    -0.01  -0.01  -0.01    -0.02   0.01   0.00
  11   1    -0.01  -0.01  -0.02     0.00  -0.01  -0.00    -0.03   0.02  -0.04
  12   1    -0.00  -0.02   0.01     0.00  -0.01   0.01    -0.05   0.02  -0.01
  13   1    -0.01  -0.00   0.00    -0.00  -0.00   0.06    -0.03   0.00  -0.00
  14   6     0.11  -0.05   0.12     0.14  -0.06   0.15    -0.16   0.08  -0.17
  15   6     0.12   0.05  -0.11    -0.16  -0.06   0.14    -0.17  -0.08   0.14
  16   1    -0.01   0.00   0.02    -0.00  -0.01  -0.00    -0.03  -0.02   0.04
  17   8    -0.00  -0.02   0.00    -0.00  -0.08   0.02     0.00  -0.01   0.00
  18   1    -0.06   0.12  -0.17    -0.08   0.16  -0.21     0.10  -0.20   0.24
  19   1    -0.16   0.08  -0.09    -0.19   0.10  -0.11     0.21  -0.12   0.12
  20   1    -0.16  -0.02  -0.15    -0.21  -0.02  -0.19     0.24   0.03   0.22
  21   1     0.00  -0.16  -0.26     0.01  -0.14  -0.19     0.01  -0.12  -0.18
  22   1     0.14  -0.01  -0.28     0.11  -0.01  -0.24     0.10  -0.01  -0.20
  23   1     0.16  -0.17  -0.17     0.12  -0.16  -0.14     0.10  -0.12  -0.11
  24   1    -0.16  -0.08   0.07     0.21   0.10  -0.09     0.21   0.11  -0.09
  25   1    -0.08  -0.11   0.16     0.11   0.16  -0.20     0.13   0.19  -0.22
  26   1    -0.16   0.02   0.12     0.23  -0.03  -0.16     0.26  -0.03  -0.18
  27   1     0.15   0.17   0.19    -0.11  -0.15  -0.15     0.09   0.11   0.12
  28   1     0.10   0.01   0.30    -0.08  -0.01  -0.25     0.07   0.01   0.21
  29   1    -0.02   0.17   0.26     0.01  -0.14  -0.19    -0.01   0.12   0.17
                     52                     53                     54
                        a                      a                      a 
 Frequencies --  1415.7092              1469.0898              1473.9086
 Red. masses --     5.8685                 1.6764                 1.6523
 Frc consts  --     0.0000                 0.0000                 0.0000
 IR Inten    --     2.8511                 0.7498                 0.8327
 Raman Activ --     0.0000                 0.0000                 0.0000
 Depolar     --     0.0000                 0.0000                 0.0000
 Atom AN      X      Y      Z        X      Y      Z        X      Y      Z
   1   6    -0.01  -0.03   0.02     0.07  -0.06  -0.04     0.05  -0.03  -0.03
   2   6     0.01  -0.04   0.01     0.02  -0.00   0.02     0.01   0.01   0.03
   3   1     0.05   0.03  -0.01    -0.19   0.10  -0.05    -0.15   0.06  -0.03
   4   1    -0.00  -0.04   0.01    -0.01  -0.00   0.00    -0.00  -0.13   0.04
   5   6     0.00   0.03  -0.01    -0.00   0.00  -0.00     0.00   0.03  -0.06
   6   6     0.04   0.08   0.15    -0.00  -0.09   0.05    -0.03  -0.06   0.03
   7   6    -0.06   0.08   0.14     0.01   0.09  -0.04     0.02  -0.06   0.04
   8   7     0.01   0.38  -0.09    -0.01  -0.00  -0.00     0.00  -0.00  -0.00
   9   6     0.01  -0.03   0.02     0.06   0.06   0.04    -0.05  -0.04  -0.04
  10   6    -0.01  -0.04   0.01     0.02   0.00  -0.01    -0.01   0.01   0.03
  11   1    -0.02   0.02  -0.03    -0.03  -0.11  -0.17     0.03   0.09   0.15
  12   1    -0.04   0.03  -0.02    -0.18  -0.09   0.02     0.16   0.06  -0.01
  13   1    -0.00   0.01   0.03     0.01  -0.00   0.00    -0.01  -0.00   0.15
  14   6    -0.11   0.07  -0.13     0.01  -0.07  -0.06    -0.02   0.09   0.09
  15   6     0.13   0.07  -0.12     0.00   0.08   0.06     0.01   0.08   0.09
  16   1     0.03   0.02  -0.03    -0.05   0.12   0.18    -0.04   0.08   0.13
  17   8    -0.01  -0.30   0.06     0.00   0.00   0.00    -0.00  -0.00   0.00
  18   1     0.08  -0.15   0.17    -0.07   0.24   0.18     0.10  -0.33  -0.23
  19   1     0.14  -0.11   0.09     0.20   0.07   0.05    -0.26  -0.04  -0.08
  20   1     0.17   0.02   0.17    -0.18  -0.02   0.01     0.27   0.02  -0.06
  21   1     0.01  -0.13  -0.16     0.07  -0.20   0.21    -0.05   0.19  -0.12
  22   1     0.10  -0.00  -0.21     0.09  -0.00  -0.10    -0.15   0.01   0.03
  23   1     0.10  -0.14  -0.12    -0.22  -0.13   0.07     0.14   0.04  -0.06
  24   1    -0.16  -0.11   0.08     0.22  -0.07  -0.02     0.25  -0.04  -0.04
  25   1    -0.10  -0.16   0.17    -0.05  -0.26  -0.20    -0.06  -0.31  -0.22
  26   1    -0.20   0.03   0.15    -0.19   0.02  -0.03    -0.24   0.02  -0.08
  27   1    -0.09  -0.14  -0.13    -0.21   0.13  -0.11    -0.11   0.02  -0.07
  28   1    -0.07  -0.00  -0.23     0.11   0.00   0.11     0.14   0.00   0.04
  29   1     0.01  -0.13  -0.17     0.11   0.23  -0.20     0.07   0.18  -0.10
                     55                     56                     57
                        a                      a                      a 
 Frequencies --  1482.0051              1483.6750              1486.9941
 Red. masses --     1.6504                 1.7431                 1.7210
 Frc consts  --     0.0000                 0.0000                 0.0000
 IR Inten    --     0.0549                 0.0409                 0.9296
 Raman Activ --     0.0000                 0.0000                 0.0000
 Depolar     --     0.0000                 0.0000                 0.0000
 Atom AN      X      Y      Z        X      Y      Z        X      Y      Z
   1   6    -0.06   0.05   0.02     0.10  -0.08  -0.05     0.04  -0.01  -0.02
   2   6     0.01  -0.02  -0.01     0.01  -0.04  -0.02    -0.01  -0.04  -0.01
   3   1     0.17  -0.07   0.03    -0.29   0.17  -0.08    -0.12   0.06  -0.03
   4   1    -0.05   0.00  -0.00     0.01  -0.01   0.00    -0.01  -0.34   0.10
   5   6     0.02  -0.00   0.00    -0.00   0.00  -0.00     0.01   0.08  -0.13
   6   6     0.11  -0.07  -0.00     0.01  -0.01   0.03    -0.08   0.01   0.02
   7   6     0.12   0.06   0.02     0.02   0.01  -0.03     0.09  -0.01   0.05
   8   7    -0.01  -0.00  -0.00    -0.01   0.00  -0.00    -0.00  -0.00  -0.00
   9   6    -0.05  -0.04  -0.03     0.09   0.08   0.06    -0.03  -0.00  -0.03
  10   6     0.01   0.01   0.01     0.01   0.04   0.02     0.02  -0.05  -0.00
  11   1     0.03   0.08   0.15    -0.05  -0.16  -0.27     0.03   0.05   0.10
  12   1     0.16   0.06  -0.01    -0.28  -0.15   0.04     0.11   0.05  -0.01
  13   1    -0.01   0.00  -0.00     0.01  -0.00   0.01    -0.02   0.00   0.37
  14   6    -0.06  -0.03   0.05    -0.02   0.06   0.08    -0.03  -0.07  -0.04
  15   6    -0.05   0.03  -0.05    -0.01  -0.07  -0.09     0.03  -0.07  -0.02
  16   1     0.05  -0.09  -0.15    -0.09   0.17   0.28    -0.04   0.06   0.11
  17   8     0.00   0.00  -0.00    -0.00   0.00  -0.00     0.00   0.01   0.00
  18   1     0.03  -0.09   0.04     0.08  -0.26  -0.18    -0.04   0.17   0.21
  19   1     0.02   0.18  -0.06    -0.21   0.00  -0.08     0.22   0.17   0.02
  20   1     0.16  -0.00  -0.17     0.22   0.01  -0.07    -0.08  -0.01  -0.09
  21   1     0.01   0.06   0.18     0.02  -0.03   0.09    -0.04   0.22  -0.00
  22   1    -0.26   0.03  -0.25    -0.01   0.00  -0.03    -0.31   0.03  -0.10
  23   1    -0.20  -0.33  -0.03    -0.08  -0.05   0.03    -0.00  -0.16  -0.07
  24   1     0.00  -0.18   0.06    -0.24   0.01   0.05    -0.18   0.15  -0.01
  25   1     0.04   0.09  -0.03     0.06   0.28   0.20     0.01   0.14   0.18
  26   1     0.14   0.00   0.19     0.22  -0.01   0.10     0.06  -0.01  -0.08
  27   1    -0.19   0.33  -0.02    -0.08   0.04  -0.04     0.05  -0.17  -0.03
  28   1    -0.26  -0.02   0.21     0.00   0.00   0.03     0.26   0.02  -0.08
  29   1     0.04  -0.03  -0.19     0.03   0.04  -0.08     0.02   0.15   0.05
                     58                     59                     60
                        a                      a                      a 
 Frequencies --  1488.1093              1492.0399              1497.3869
 Red. masses --     1.7032                 1.6289                 1.8637
 Frc consts  --     0.0000                 0.0000                 0.0000
 IR Inten    --     3.9215                 4.9412                 0.8501
 Raman Activ --     0.0000                 0.0000                 0.0000
 Depolar     --     0.0000                 0.0000                 0.0000
 Atom AN      X      Y      Z        X      Y      Z        X      Y      Z
   1   6    -0.05   0.08   0.03    -0.04   0.03   0.03     0.12  -0.09  -0.06
   2   6    -0.03  -0.06   0.01     0.00   0.02   0.02     0.02   0.01  -0.02
   3   1     0.16  -0.10   0.05     0.12  -0.08   0.04    -0.33   0.16  -0.08
   4   1     0.01  -0.03   0.01     0.00   0.14  -0.04     0.00   0.10  -0.03
   5   6    -0.00   0.01  -0.01    -0.00  -0.03   0.05    -0.00  -0.05   0.03
   6   6    -0.08  -0.07   0.07    -0.06   0.06  -0.03     0.03   0.06  -0.04
   7   6    -0.05   0.08  -0.07     0.07   0.06  -0.02    -0.03   0.06  -0.05
   8   7     0.01  -0.00   0.00     0.00   0.01  -0.01     0.00   0.03  -0.01
   9   6    -0.05  -0.07  -0.04     0.04   0.03   0.03    -0.12  -0.09  -0.08
  10   6    -0.02   0.05  -0.02    -0.00   0.02   0.02    -0.03   0.01  -0.02
  11   1     0.03   0.12   0.18    -0.03  -0.07  -0.13     0.07   0.19   0.33
  12   1     0.18   0.11  -0.03    -0.13  -0.08   0.02     0.36   0.16  -0.04
  13   1    -0.02   0.00   0.03     0.01   0.00  -0.15     0.01  -0.01  -0.10
  14   6     0.02   0.04   0.02    -0.08  -0.03   0.08    -0.03  -0.03   0.02
  15   6     0.03  -0.05  -0.02     0.07  -0.03   0.09     0.01  -0.02   0.01
  16   1     0.04  -0.11  -0.16     0.04  -0.07  -0.12    -0.10   0.18   0.31
  17   8    -0.00   0.00  -0.00    -0.00  -0.01   0.00    -0.00  -0.03   0.01
  18   1     0.02  -0.09  -0.12     0.06  -0.17   0.03     0.01  -0.01   0.07
  19   1    -0.12  -0.11  -0.01    -0.02   0.26  -0.10     0.06   0.12  -0.02
  20   1     0.04   0.01   0.07     0.26   0.00  -0.26     0.06  -0.00  -0.10
  21   1     0.08  -0.33   0.15     0.04  -0.06   0.18     0.06  -0.25   0.11
  22   1     0.30  -0.03  -0.00    -0.08   0.01  -0.15     0.21  -0.02  -0.01
  23   1    -0.17   0.03   0.11    -0.20  -0.21   0.02    -0.14   0.00   0.08
  24   1    -0.16   0.13  -0.01     0.02   0.28  -0.10    -0.03   0.04  -0.01
  25   1     0.01   0.13   0.16    -0.07  -0.17   0.04    -0.01   0.00   0.03
  26   1     0.07  -0.01  -0.07    -0.22  -0.00  -0.30    -0.02  -0.00  -0.03
  27   1    -0.16  -0.05  -0.15     0.18  -0.21   0.05     0.12  -0.02   0.09
  28   1     0.36   0.02   0.03     0.10   0.01  -0.14    -0.17  -0.01  -0.04
  29   1     0.13   0.37  -0.14    -0.06  -0.05   0.17    -0.08  -0.21   0.10
                     61                     62                     63
                        a                      a                      a 
 Frequencies --  1498.5025              1501.2933              1507.2243
 Red. masses --     1.6013                 1.7197                 1.8020
 Frc consts  --     0.0000                 0.0000                 0.0000
 IR Inten    --     7.0529                 8.8757                 0.0812
 Raman Activ --     0.0000                 0.0000                 0.0000
 Depolar     --     0.0000                 0.0000                 0.0000
 Atom AN      X      Y      Z        X      Y      Z        X      Y      Z
   1   6     0.01  -0.00  -0.01     0.02   0.01  -0.01     0.04  -0.03  -0.01
   2   6     0.05  -0.03   0.01     0.02  -0.06   0.02    -0.04   0.02  -0.01
   3   1    -0.05   0.01  -0.01    -0.05  -0.00  -0.00    -0.08   0.05  -0.02
   4   1    -0.01   0.01  -0.00     0.01   0.31  -0.10     0.01   0.40  -0.12
   5   6    -0.00  -0.00   0.00    -0.01  -0.09   0.11    -0.01  -0.10   0.15
   6   6     0.07  -0.01  -0.02     0.04  -0.07   0.06    -0.09   0.02   0.04
   7   6     0.07   0.02   0.02    -0.05  -0.07   0.05     0.08   0.01   0.06
   8   7    -0.02   0.00  -0.00     0.00   0.04  -0.01    -0.00  -0.04   0.01
   9   6    -0.02  -0.02  -0.01    -0.02   0.01  -0.01    -0.04  -0.03  -0.02
  10   6     0.05   0.04  -0.01    -0.02  -0.06   0.01     0.04   0.02  -0.00
  11   1     0.01  -0.00   0.03     0.01   0.02   0.03     0.02   0.03   0.09
  12   1     0.02   0.03  -0.01     0.05  -0.00   0.01     0.09   0.05  -0.01
  13   1    -0.01  -0.00  -0.01     0.02  -0.01  -0.31     0.02  -0.01  -0.41
  14   6     0.09   0.08  -0.06    -0.05  -0.06   0.00     0.03   0.03  -0.04
  15   6     0.07  -0.08   0.07     0.05  -0.07   0.02    -0.03   0.03  -0.04
  16   1    -0.01   0.04   0.04    -0.01   0.02   0.03    -0.03   0.02   0.08
  17   8    -0.00  -0.00   0.00    -0.00  -0.02   0.01     0.00   0.02  -0.00
  18   1    -0.04   0.05  -0.19    -0.00   0.05   0.17    -0.03   0.05  -0.06
  19   1    -0.13  -0.39   0.09     0.14   0.22  -0.02    -0.03  -0.16   0.05
  20   1    -0.19   0.01   0.34     0.04  -0.01  -0.18    -0.10   0.00   0.15
  21   1    -0.01   0.09   0.10    -0.06   0.15  -0.25    -0.03   0.16   0.03
  22   1    -0.19   0.02  -0.15    -0.01  -0.00   0.13    -0.27   0.03  -0.17
  23   1    -0.09  -0.19  -0.03     0.27   0.17  -0.09    -0.03  -0.22  -0.08
  24   1    -0.11   0.37  -0.10    -0.14   0.25  -0.05     0.03  -0.18   0.06
  25   1    -0.06  -0.05   0.17    -0.02   0.05   0.18     0.04   0.05  -0.07
  26   1    -0.14  -0.01  -0.35    -0.03  -0.01  -0.21     0.09   0.01   0.18
  27   1    -0.05   0.18   0.03    -0.25   0.18  -0.12     0.05  -0.25  -0.07
  28   1    -0.23  -0.01   0.11    -0.01  -0.00   0.13     0.30   0.01  -0.15
  29   1    -0.01  -0.12  -0.07     0.10   0.14  -0.24     0.02   0.16   0.05
                     64                     65                     66
                        a                      a                      a 
 Frequencies --  2961.8809              2967.2149              2977.3147
 Red. masses --     1.8778                 1.8612                 1.8784
 Frc consts  --     0.0000                 0.0000                 0.0000
 IR Inten    --    16.2230                16.3660                37.8947
 Raman Activ --     0.0000                 0.0000                 0.0000
 Depolar     --     0.0000                 0.0000                 0.0000
 Atom AN      X      Y      Z        X      Y      Z        X      Y      Z
   1   6    -0.01  -0.01  -0.04    -0.05  -0.05  -0.24     0.06   0.00   0.11
   2   6    -0.00   0.00  -0.00    -0.00  -0.00  -0.01     0.00  -0.00   0.00
   3   1    -0.00   0.04   0.11    -0.03   0.29   0.78     0.02  -0.10  -0.25
   4   1    -0.01   0.05   0.17     0.02  -0.08  -0.26     0.01  -0.03  -0.18
   5   6     0.00  -0.06  -0.04    -0.00   0.11   0.06    -0.00   0.21   0.06
   6   6     0.00  -0.00   0.00     0.00  -0.00   0.00    -0.00   0.00  -0.00
   7   6     0.00   0.00  -0.00    -0.00   0.00  -0.00     0.00   0.00  -0.00
   8   7     0.00   0.00  -0.00     0.00  -0.00   0.00     0.00   0.00  -0.00
   9   6    -0.09   0.05   0.25    -0.01  -0.01  -0.00    -0.10  -0.02   0.07
  10   6    -0.00   0.00   0.01    -0.00  -0.00  -0.00    -0.00  -0.00   0.00
  11   1     0.25   0.11  -0.09     0.05   0.02  -0.03     0.36   0.14  -0.16
  12   1     0.06  -0.30  -0.82    -0.00   0.01   0.04    -0.01  -0.03  -0.07
  13   1     0.00   0.15  -0.01    -0.00  -0.31   0.01    -0.00  -0.74  -0.00
  14   6     0.00  -0.01  -0.01    -0.00   0.00   0.00     0.00  -0.00  -0.00
  15   6    -0.00   0.00  -0.00     0.00   0.01   0.01    -0.00  -0.00  -0.00
  16   1     0.05  -0.02   0.03     0.20  -0.09   0.09    -0.24   0.10  -0.14
  17   8    -0.00  -0.00  -0.00    -0.00   0.00   0.00    -0.00  -0.00   0.00
  18   1     0.00   0.00  -0.00    -0.00  -0.00   0.00    -0.01  -0.00   0.00
  19   1    -0.01   0.01   0.02     0.00  -0.00  -0.01    -0.00   0.00   0.01
  20   1    -0.00   0.01  -0.00    -0.00  -0.00   0.00     0.00   0.00  -0.00
  21   1    -0.01  -0.00   0.00    -0.00  -0.00  -0.00    -0.01  -0.00  -0.00
  22   1    -0.00  -0.00   0.00    -0.00   0.00  -0.00     0.00   0.00  -0.00
  23   1     0.00  -0.00   0.00     0.00  -0.00   0.01     0.01  -0.01   0.01
  24   1     0.00   0.00   0.00    -0.01  -0.01  -0.03     0.00   0.01   0.01
  25   1     0.00  -0.00  -0.00     0.00  -0.00   0.00     0.00  -0.00   0.00
  26   1    -0.00  -0.00   0.00    -0.00  -0.01   0.00    -0.00   0.01  -0.00
  27   1     0.00   0.00  -0.00     0.00   0.00  -0.00    -0.01  -0.01   0.01
  28   1    -0.00   0.00  -0.00    -0.00   0.01  -0.00    -0.00   0.00  -0.00
  29   1    -0.00   0.00  -0.00    -0.01   0.00  -0.00     0.01  -0.00   0.00
                     67                     68                     69
                        a                      a                      a 
 Frequencies --  2985.0796              2990.7603              3000.1674
 Red. masses --     1.6226                 1.5955                 1.5812
 Frc consts  --     0.0000                 0.0000                 0.0000
 IR Inten    --    56.2510                44.4649                45.3828
 Raman Activ --     0.0000                 0.0000                 0.0000
 Depolar     --     0.0000                 0.0000                 0.0000
 Atom AN      X      Y      Z        X      Y      Z        X      Y      Z
   1   6     0.03  -0.01   0.03     0.18  -0.11   0.02     0.04  -0.02   0.05
   2   6     0.00  -0.00   0.00     0.00  -0.00   0.00     0.00   0.00   0.00
   3   1     0.01  -0.02  -0.04     0.02   0.12   0.37     0.01  -0.02  -0.05
   4   1     0.01  -0.06  -0.19    -0.01   0.08   0.24     0.05  -0.28  -0.78
   5   6     0.00   0.09   0.05     0.01  -0.06  -0.06    -0.01  -0.04   0.21
   6   6     0.00   0.00  -0.00    -0.01   0.01   0.00     0.01   0.01  -0.01
   7   6    -0.01  -0.01  -0.00     0.00  -0.00   0.00    -0.01   0.01  -0.01
   8   7    -0.00  -0.00  -0.00    -0.00   0.00  -0.00    -0.00  -0.00  -0.00
   9   6     0.17   0.11   0.01     0.00  -0.01  -0.02    -0.03  -0.01   0.04
  10   6     0.00   0.00   0.00     0.00  -0.00  -0.00    -0.00   0.00   0.00
  11   1    -0.69  -0.26   0.33    -0.00  -0.00   0.00     0.12   0.04  -0.05
  12   1     0.06  -0.12  -0.36    -0.00   0.02   0.05     0.00  -0.02  -0.06
  13   1    -0.00  -0.28   0.00     0.00   0.12  -0.01    -0.00   0.42   0.04
  14   6    -0.01  -0.01  -0.00    -0.00   0.00   0.00     0.00  -0.00  -0.00
  15   6    -0.00  -0.00  -0.00    -0.01   0.01   0.00    -0.00  -0.00  -0.01
  16   1    -0.12   0.05  -0.07    -0.67   0.28  -0.43    -0.17   0.07  -0.11
  17   8     0.00   0.00  -0.00     0.00  -0.00   0.00     0.00  -0.00  -0.00
  18   1     0.03   0.01  -0.01     0.00   0.00  -0.00    -0.01  -0.00   0.00
  19   1    -0.01   0.01   0.02     0.00  -0.00  -0.00    -0.01   0.01   0.02
  20   1    -0.00   0.01  -0.00    -0.00  -0.00   0.00     0.00  -0.00  -0.00
  21   1     0.03   0.01  -0.00     0.01   0.00   0.00    -0.01   0.00  -0.00
  22   1     0.00   0.02  -0.00    -0.00  -0.00   0.00    -0.00  -0.01  -0.00
  23   1     0.00  -0.00   0.00    -0.01   0.01  -0.01     0.03  -0.02   0.05
  24   1     0.00   0.00   0.00    -0.01  -0.01  -0.02     0.00   0.01   0.02
  25   1     0.01  -0.00   0.00     0.04  -0.02   0.01     0.01  -0.00   0.00
  26   1    -0.00   0.00  -0.00    -0.00  -0.02   0.00    -0.00  -0.00  -0.00
  27   1    -0.01  -0.01   0.01     0.01   0.00  -0.01    -0.04  -0.02   0.04
  28   1    -0.00   0.00  -0.00    -0.00  -0.02   0.00     0.00  -0.02  -0.00
  29   1     0.01  -0.00   0.00     0.03  -0.01   0.01     0.01  -0.00   0.00
                     70                     71                     72
                        a                      a                      a 
 Frequencies --  3033.2823              3034.6454              3036.9412
 Red. masses --     1.8758                 1.8374                 1.7849
 Frc consts  --     0.0000                 0.0000                 0.0000
 IR Inten    --     2.5666                35.7227                30.3226
 Raman Activ --     0.0000                 0.0000                 0.0000
 Depolar     --     0.0000                 0.0000                 0.0000
 Atom AN      X      Y      Z        X      Y      Z        X      Y      Z
   1   6     0.00  -0.00  -0.00     0.00  -0.00  -0.01    -0.00  -0.00  -0.01
   2   6     0.00  -0.00  -0.00     0.00  -0.00  -0.00    -0.00  -0.00  -0.00
   3   1     0.00   0.01   0.02    -0.00   0.01   0.02     0.00   0.01   0.01
   4   1    -0.00   0.00   0.00    -0.00   0.01   0.03    -0.00   0.00   0.00
   5   6     0.00  -0.00  -0.00     0.00  -0.00  -0.01    -0.00  -0.00  -0.00
   6   6     0.10   0.01  -0.01     0.08   0.00   0.01    -0.17   0.04   0.00
   7   6     0.09  -0.01   0.02    -0.11   0.00  -0.01    -0.15  -0.03  -0.03
   8   7     0.00   0.00   0.00    -0.00   0.00   0.00     0.00  -0.00  -0.00
   9   6     0.00   0.00   0.00    -0.00  -0.00  -0.01    -0.00   0.00   0.00
  10   6     0.00   0.00   0.00    -0.00  -0.00  -0.00    -0.00   0.00   0.00
  11   1    -0.01  -0.00   0.00     0.00   0.00  -0.00     0.01   0.00  -0.00
  12   1     0.00  -0.00  -0.01    -0.00   0.01   0.02     0.00  -0.01  -0.01
  13   1    -0.00   0.00  -0.00     0.00  -0.00  -0.00     0.00  -0.00   0.00
  14   6    -0.09   0.05   0.12     0.10  -0.06  -0.14     0.00   0.05   0.07
  15   6    -0.08  -0.06  -0.16    -0.07  -0.05  -0.13     0.02  -0.05  -0.07
  16   1    -0.01   0.00  -0.01    -0.00   0.00  -0.00     0.01  -0.01   0.01
  17   8     0.00  -0.00   0.00     0.00  -0.00   0.00     0.00   0.00   0.00
  18   1     0.12   0.06  -0.00    -0.14  -0.07   0.01    -0.14  -0.05   0.03
  19   1     0.19  -0.17  -0.45    -0.21   0.19   0.50     0.14  -0.11  -0.31
  20   1    -0.01  -0.06   0.02     0.01   0.08  -0.02    -0.00  -0.01   0.01
  21   1    -0.29  -0.07   0.02     0.37   0.09  -0.03     0.45   0.11  -0.04
  22   1     0.02   0.04   0.00    -0.02  -0.07  -0.00    -0.01   0.09  -0.01
  23   1    -0.05   0.05  -0.10     0.02  -0.03   0.05     0.07  -0.08   0.14
  24   1     0.15   0.21   0.55     0.13   0.18   0.47     0.10   0.12   0.33
  25   1     0.14  -0.07   0.02     0.12  -0.06   0.02    -0.17   0.06  -0.06
  26   1    -0.01   0.07  -0.02    -0.01   0.07  -0.02     0.00   0.00  -0.01
  27   1    -0.07  -0.05   0.10    -0.01  -0.02   0.03     0.10   0.08  -0.14
  28   1     0.02  -0.06   0.00     0.02  -0.08   0.00    -0.02  -0.08   0.01
  29   1    -0.30   0.09  -0.07    -0.29   0.08  -0.06     0.52  -0.15   0.12
                     73                     74                     75
                        a                      a                      a 
 Frequencies --  3037.7196              3043.1557              3045.2939
 Red. masses --     1.6924                 1.9241                 1.8116
 Frc consts  --     0.0000                 0.0000                 0.0000
 IR Inten    --    26.7069                 1.0858                44.5461
 Raman Activ --     0.0000                 0.0000                 0.0000
 Depolar     --     0.0000                 0.0000                 0.0000
 Atom AN      X      Y      Z        X      Y      Z        X      Y      Z
   1   6    -0.00  -0.00  -0.01    -0.01   0.00  -0.00    -0.01   0.00  -0.00
   2   6    -0.00  -0.00  -0.00     0.00   0.01  -0.00    -0.00   0.01  -0.00
   3   1    -0.00   0.01   0.02    -0.00   0.00  -0.00    -0.00  -0.00  -0.01
   4   1    -0.00   0.00   0.01    -0.00   0.00   0.01    -0.00   0.01   0.03
   5   6     0.00  -0.00  -0.00    -0.00   0.00  -0.00     0.00   0.00  -0.01
   6   6    -0.13   0.04  -0.02     0.02   0.21  -0.10    -0.05   0.13  -0.02
   7   6     0.15   0.04   0.00     0.00  -0.15   0.08    -0.00   0.17  -0.09
   8   7     0.00  -0.00  -0.00     0.00   0.00  -0.00    -0.00   0.00  -0.00
   9   6     0.00  -0.00  -0.01    -0.00  -0.00   0.00     0.00   0.00  -0.00
  10   6     0.00  -0.00  -0.00     0.00  -0.00   0.00    -0.00   0.01  -0.00
  11   1    -0.01  -0.01   0.00     0.02   0.01  -0.01    -0.02  -0.01   0.01
  12   1    -0.00   0.01   0.02    -0.00  -0.00   0.00    -0.00   0.00   0.00
  13   1     0.00   0.00  -0.00    -0.00  -0.00  -0.00     0.00  -0.02  -0.00
  14   6    -0.01  -0.06  -0.09    -0.01   0.00  -0.01     0.00  -0.02   0.01
  15   6     0.02  -0.06  -0.07    -0.02  -0.00   0.02    -0.11   0.04  -0.01
  16   1     0.01  -0.01   0.00     0.02  -0.01   0.01     0.03  -0.01   0.02
  17   8    -0.00  -0.00   0.00    -0.00  -0.00   0.00     0.00  -0.00   0.00
  18   1     0.18   0.06  -0.04     0.04   0.02  -0.01    -0.03  -0.01   0.01
  19   1    -0.16   0.13   0.36    -0.03   0.02   0.06     0.03  -0.02  -0.06
  20   1     0.00   0.02  -0.01     0.00  -0.05  -0.00    -0.00   0.09   0.00
  21   1    -0.54  -0.12   0.04     0.13   0.01   0.00    -0.13  -0.01  -0.00
  22   1     0.02  -0.03   0.00     0.05   0.39   0.00    -0.06  -0.48  -0.00
  23   1    -0.01   0.03  -0.05    -0.19   0.13  -0.29     0.20  -0.13   0.31
  24   1     0.10   0.12   0.32    -0.03  -0.04  -0.09    -0.04  -0.02  -0.08
  25   1    -0.17   0.06  -0.06     0.09  -0.04   0.03     0.46  -0.19   0.14
  26   1     0.00   0.02  -0.01     0.00   0.08   0.00    -0.01   0.07  -0.00
  27   1     0.01   0.02  -0.03    -0.30  -0.14   0.33    -0.02   0.01   0.01
  28   1    -0.02  -0.01  -0.00     0.04  -0.57   0.01     0.02  -0.45   0.02
  29   1     0.47  -0.13   0.10     0.17  -0.02   0.02     0.17  -0.03   0.03
                     76                     77                     78
                        a                      a                      a 
 Frequencies --  3045.4368              3046.0723              3046.7686
 Red. masses --     1.7282                 1.7056                 1.3550
 Frc consts  --     0.0000                 0.0000                 0.0000
 IR Inten    --    77.4408                 2.2453                21.5954
 Raman Activ --     0.0000                 0.0000                 0.0000
 Depolar     --     0.0000                 0.0000                 0.0000
 Atom AN      X      Y      Z        X      Y      Z        X      Y      Z
   1   6    -0.00   0.00   0.00     0.00  -0.00   0.00     0.00  -0.00   0.00
   2   6    -0.01   0.00   0.00     0.01   0.00   0.00     0.00   0.00   0.00
   3   1    -0.00  -0.00  -0.01     0.00   0.00   0.01     0.00   0.00   0.00
   4   1     0.00  -0.01  -0.02    -0.00   0.00   0.01     0.00  -0.00  -0.00
   5   6    -0.00  -0.00   0.00     0.00  -0.00  -0.00    -0.00   0.00   0.00
   6   6    -0.07  -0.06   0.06     0.04   0.07   0.01    -0.01   0.05   0.08
   7   6    -0.05  -0.11  -0.02    -0.07   0.06  -0.04     0.02  -0.07  -0.08
   8   7    -0.00  -0.00   0.00    -0.00   0.00  -0.00    -0.00  -0.00   0.00
   9   6    -0.01  -0.00   0.00    -0.00  -0.00  -0.00     0.00   0.00  -0.00
  10   6    -0.00  -0.01  -0.00    -0.01  -0.00   0.00     0.00  -0.00  -0.00
  11   1     0.03   0.01  -0.01     0.02   0.01  -0.01    -0.02  -0.01   0.01
  12   1    -0.00   0.00   0.01    -0.00   0.00   0.01     0.00  -0.00  -0.00
  13   1     0.00   0.01   0.00     0.00  -0.00  -0.00    -0.00   0.00   0.00
  14   6    -0.12  -0.05  -0.00    -0.16  -0.07   0.02     0.08   0.04  -0.02
  15   6    -0.12   0.06  -0.03     0.11  -0.05   0.04     0.05  -0.02   0.02
  16   1     0.01  -0.01   0.01    -0.02   0.01  -0.01    -0.01   0.01  -0.01
  17   8     0.00   0.00  -0.00     0.00   0.00  -0.00     0.00  -0.00   0.00
  18   1     0.48   0.20  -0.08     0.61   0.25  -0.09    -0.30  -0.12   0.04
  19   1    -0.05   0.02   0.08    -0.02  -0.01   0.00    -0.00   0.02   0.03
  20   1    -0.01  -0.05   0.00    -0.02   0.01   0.01     0.01  -0.02  -0.00
  21   1     0.10   0.01  -0.01     0.17   0.05  -0.02    -0.29  -0.08   0.01
  22   1     0.04   0.44  -0.01    -0.03  -0.19  -0.00     0.05   0.46  -0.02
  23   1     0.04  -0.06   0.08     0.10  -0.07   0.16     0.18  -0.14   0.27
  24   1    -0.02   0.01  -0.01     0.01  -0.02  -0.02    -0.00  -0.01  -0.03
  25   1     0.47  -0.19   0.14    -0.42   0.17  -0.12    -0.17   0.07  -0.05
  26   1    -0.02  -0.04  -0.01     0.02   0.01   0.01     0.01   0.02   0.00
  27   1     0.22   0.12  -0.25     0.02   0.02  -0.02     0.24   0.14  -0.27
  28   1    -0.02   0.13   0.00     0.03  -0.33   0.02     0.02  -0.41   0.03
  29   1     0.07  -0.03   0.03    -0.21   0.07  -0.05    -0.24   0.07  -0.04
                     79                     80                     81
                        a                      a                      a 
 Frequencies --  3052.1555              3060.5819              3061.4916
 Red. masses --     1.4913                 1.6879                 1.6977
 Frc consts  --     0.0000                 0.0000                 0.0000
 IR Inten    --    48.5056                 4.2940                20.8536
 Raman Activ --     0.0000                 0.0000                 0.0000
 Depolar     --     0.0000                 0.0000                 0.0000
 Atom AN      X      Y      Z        X      Y      Z        X      Y      Z
   1   6    -0.00  -0.00  -0.01    -0.00   0.00   0.00    -0.00   0.00   0.00
   2   6     0.00  -0.00  -0.01     0.00   0.01  -0.00     0.00   0.00  -0.00
   3   1    -0.00   0.01   0.02    -0.00  -0.00  -0.01    -0.00  -0.00  -0.01
   4   1    -0.00   0.03   0.07    -0.00   0.00   0.00    -0.00   0.00   0.01
   5   6     0.00  -0.01  -0.02    -0.00   0.00  -0.00     0.00   0.00  -0.00
   6   6     0.09  -0.01  -0.11     0.01   0.03  -0.01     0.00   0.02  -0.01
   7   6    -0.07  -0.00  -0.13     0.01  -0.01   0.01    -0.01   0.03  -0.01
   8   7    -0.00  -0.00   0.00     0.00   0.00  -0.00    -0.00   0.00  -0.00
   9   6     0.00  -0.00  -0.00    -0.00  -0.00  -0.00     0.00   0.00   0.00
  10   6    -0.00  -0.00  -0.01     0.00  -0.00   0.00    -0.00   0.01  -0.00
  11   1    -0.00  -0.00   0.00     0.00   0.00  -0.00    -0.01  -0.00   0.01
  12   1    -0.00   0.01   0.02    -0.00   0.00   0.00     0.00  -0.00  -0.01
  13   1     0.00  -0.00  -0.00     0.00  -0.00  -0.00    -0.00  -0.01  -0.00
  14   6    -0.01  -0.01  -0.00     0.00  -0.11   0.01     0.01   0.22  -0.02
  15   6     0.01  -0.01  -0.00     0.00   0.22  -0.03    -0.00   0.11  -0.02
  16   1     0.00  -0.00   0.00     0.01  -0.00   0.01     0.01  -0.00   0.00
  17   8     0.00   0.00  -0.00    -0.00  -0.00   0.00     0.00  -0.00   0.00
  18   1     0.04   0.02  -0.01    -0.00  -0.02   0.00    -0.02   0.02   0.00
  19   1    -0.01   0.00   0.01     0.01  -0.03  -0.03    -0.03   0.06   0.07
  20   1    -0.00   0.01  -0.00    -0.02   0.42  -0.01     0.04  -0.85   0.02
  21   1    -0.07  -0.01  -0.01    -0.02  -0.01   0.00     0.01   0.01  -0.00
  22   1     0.02   0.28  -0.02     0.01   0.03   0.00    -0.01  -0.11  -0.00
  23   1     0.32  -0.25   0.50    -0.01   0.01  -0.02     0.03  -0.02   0.05
  24   1     0.01   0.00   0.01     0.02   0.06   0.07     0.01   0.03   0.04
  25   1    -0.04   0.01  -0.01     0.01   0.02   0.00     0.02   0.00   0.01
  26   1     0.00   0.00   0.00    -0.04  -0.86   0.02    -0.02  -0.42   0.01
  27   1    -0.37  -0.22   0.43    -0.03  -0.02   0.04    -0.02  -0.01   0.02
  28   1    -0.00   0.28  -0.03     0.01  -0.09   0.00     0.00  -0.06   0.00
  29   1     0.06  -0.01  -0.00    -0.02   0.01  -0.01     0.00   0.00  -0.00
